   * xtb version 6.6.0 (conda-forge) compiled by 'runner@Mac-1676020848589.local' on 2023-02-10
          program call               : xtb thioaspirin.xyz --opt --alpb acetonitrile --gfn2

   ID    Z sym.   atoms
    1    6 C      1, 2, 5-11
    2    8 O      3, 12, 13
    3   16 S      4
    4    1 H      14-21

      * Solvation model:               ALPB
        Solvent                        acetonitrile
        Solvent mass                       4.1050E+01 g/mol
          :  Hamiltonian                  GFN2-xTB          :
 * total energy  :   -38.7791989 Eh     change       -0.3333867E-09 Eh
 * total energy  :   -38.7939668 Eh     change       -0.1476794E-01 Eh
 * total energy  :   -38.7975415 Eh     change       -0.3574652E-02 Eh
 * total energy  :   -38.7979461 Eh     change       -0.4046003E-03 Eh
 * total energy  :   -38.7982387 Eh     change       -0.2926350E-03 Eh
 * total energy  :   -38.7984007 Eh     change       -0.1619937E-03 Eh
 * total energy  :   -38.7986638 Eh     change       -0.2631200E-03 Eh
 * total energy  :   -38.7992682 Eh     change       -0.6044248E-03 Eh
 * total energy  :   -38.8000380 Eh     change       -0.7697935E-03 Eh
 * total energy  :   -38.8008227 Eh     change       -0.7846710E-03 Eh
 * total energy  :   -38.8151074 Eh     change       -0.8786289E-05 Eh
 * total energy  :   -38.8151199 Eh     change       -0.1245445E-04 Eh
 * total energy  :   -38.8151318 Eh     change       -0.1190013E-04 Eh
 * total energy  :   -38.8151360 Eh     change       -0.4279673E-05 Eh
 * total energy  :   -38.8151468 Eh     change       -0.1079500E-04 Eh
 * total energy  :   -38.8151542 Eh     change       -0.7344395E-05 Eh
 * total energy  :   -38.8151605 Eh     change       -0.6370319E-05 Eh
 * total energy  :   -38.8151688 Eh     change       -0.8291573E-05 Eh
 * total energy  :   -38.8151731 Eh     change       -0.4264168E-05 Eh
   *** GEOMETRY OPTIMIZATION CONVERGED AFTER 48 ITERATIONS ***

 final structure:
================
21
 xtb: 6.6.0 (conda-forge)
C            3.27044052542153       -0.37381354043932        1.51832801877416
C            2.03954691610553       -0.24776896786988        0.68105948028866
O            1.94096089108585       -0.49156840972042       -0.49323651573288
S            0.66226918313720        0.36726568899512        1.62989345719746
C           -0.57602386331394        0.60436796104876        0.37376496668699
C           -1.12022744553358        1.87706351010948        0.27160044968140
C           -2.05227255099403        2.16224689909704       -0.70988189462968
C           -2.42544008036617        1.18071567407599       -1.61541907840037
C           -1.88339464689658       -0.08557237078967       -1.51512782587849
C           -0.97091536807209       -0.40172249290835       -0.50805374661744
C           -0.50247350512671       -1.80982730365564       -0.45544342190469
O           -0.49554503195915       -2.54870254526190       -1.41391430202085
O           -0.15554871503814       -2.22663181274061        0.76229286523362
H            3.01435249222703       -0.48427519887524        2.56838996825149
H            3.86625037764659       -1.21589100986146        1.17086825772551
H            3.86121902820445        0.53443738647251        1.39365041495837
H           -0.80187034676488        2.63853067563963        0.96686191509343
H           -2.47433450902935        3.15325185624912       -0.77470364380127
H           -3.13701203947193        1.40087747590535       -2.39598152372997
H           -2.16036198117046       -0.86768274725244       -2.20589102323239
H            0.10028066990800       -3.16530072821755        0.75094318205678

          :  Hamiltonian                  GFN2-xTB          :
         :: total energy             -38.815173102258 Eh    ::
         :: gradient norm              0.000783726688 Eh/a0 ::
         :: HOMO-LUMO gap              2.985643235826 eV    ::
         :: SCC energy               -39.300758987844 Eh    ::
         :: -> dispersion             -0.021945965255 Eh    ::
         :: -> Gsolv                  -0.026892923717 Eh    ::
         :: repulsion energy           0.485483416152 Eh    ::

    * Orbital Energies and Occupations

         #    Occupation            Energy/Eh            Energy/eV
      -------------------------------------------------------------
         1        2.0000           -0.7506387             -20.4259
       ...           ...                  ...                  ...
        22        2.0000           -0.5036329             -13.7045
        23        2.0000           -0.5002704             -13.6130
        24        2.0000           -0.4890074             -13.3066
        25        2.0000           -0.4873031             -13.2602
        26        2.0000           -0.4823748             -13.1261
        27        2.0000           -0.4806827             -13.0800
        28        2.0000           -0.4576594             -12.4535
        29        2.0000           -0.4441806             -12.0868
        30        2.0000           -0.4379668             -11.9177
        31        2.0000           -0.4313474             -11.7376
        32        2.0000           -0.4269425             -11.6177
        33        2.0000           -0.4147116             -11.2849
        34        2.0000           -0.3953061             -10.7568 (HOMO)
        35                         -0.2855857              -7.7712 (LUMO)
        36                         -0.2638718              -7.1803
        37                         -0.2511993              -6.8355
        38                         -0.2092694              -5.6945
        39                         -0.2052954              -5.5864
        40                         -0.1502226              -4.0878
        41                         -0.1112451              -3.0271
        42                         -0.0173334              -0.4717
        43                          0.0169474               0.4612
        44                          0.0205157               0.5583
        45                          0.0541404               1.4732
       ...                                ...                  ...
        65                          0.6616832              18.0053
      -------------------------------------------------------------
                  HL-Gap            0.1097204 Eh            2.9856 eV

     #   Z          covCN         q      C6AA      α(0)
     1   6 C        3.806    -0.150    23.394     6.885
     2   6 C        2.805     0.270    22.438     7.760
     3   8 O        0.874    -0.397    21.610     6.233
     4  16 S        2.102    -0.115   145.851    20.326
     5   6 C        2.967     0.063    26.594     8.459
     6   6 C        2.978    -0.034    28.843     8.809
     7   6 C        2.920    -0.022    28.558     8.763
     8   6 C        2.917    -0.027    28.674     8.781
     9   6 C        2.930    -0.020    28.516     8.758
    10   6 C        2.991    -0.013    28.332     8.731
    11   6 C        2.698     0.368    20.753     7.456
    12   8 O        0.857    -0.452    22.749     6.395
    13   8 O        1.660    -0.389    20.641     6.133
    14   1 H        0.925     0.090     1.875     2.141
    15   1 H        0.925     0.091     1.871     2.139
    16   1 H        0.924     0.103     1.758     2.074
    17   1 H        0.926     0.069     2.094     2.263
    18   1 H        0.926     0.067     2.117     2.275
    19   1 H        0.926     0.064     2.157     2.297
    20   1 H        0.926     0.063     2.159     2.298
    21   1 H        0.804     0.371     0.543     1.157

Wiberg/Mayer (AO) data.
largest (>0.10) Wiberg bond orders for each atom

     #   Z sym  total        # sym  WBO       # sym  WBO       # sym  WBO
 ---------------------------------------------------------------------------
     1   6 C    3.984 --     2 C    1.017    14 H    0.972    15 H    0.964
                            16 H    0.941
     2   6 C    3.924 --     3 O    1.796     4 S    1.055     1 C    1.017
     3   8 O    2.114 --     2 C    1.796     4 S    0.204
     4  16 S    2.430 --     2 C    1.055     5 C    1.005     3 O    0.204
     5   6 C    3.966 --     6 C    1.412    10 C    1.366     4 S    1.005
     6   6 C    3.988 --     7 C    1.441     5 C    1.412    17 H    0.965
                             9 C    0.105
     7   6 C    3.988 --     6 C    1.441     8 C    1.424    18 H    0.967
                            10 C    0.101
     8   6 C    3.988 --     9 C    1.454     7 C    1.424    19 H    0.967
     9   6 C    3.987 --     8 C    1.454    10 C    1.381    20 H    0.964
                             6 C    0.105
    10   6 C    3.987 --     9 C    1.381     5 C    1.366    11 C    1.000
                             7 C    0.101
    11   6 C    3.914 --    12 O    1.711    13 O    1.147    10 C    1.000
    12   8 O    2.002 --    11 C    1.711    13 O    0.169
    13   8 O    2.199 --    11 C    1.147    21 H    0.837    12 O    0.169
    14   1 H    0.992 --     1 C    0.972
    15   1 H    0.991 --     1 C    0.964
    16   1 H    0.989 --     1 C    0.941
    17   1 H    0.995 --     6 C    0.965
    18   1 H    0.995 --     7 C    0.967
    19   1 H    0.995 --     8 C    0.967
    20   1 H    0.996 --     9 C    0.964
    21   1 H    0.862 --    13 O    0.837
 ---------------------------------------------------------------------------

molecular dipole:
                 x           y           z       tot (Debye)
 q only:       -0.042       1.043       1.386
   full:        0.006       0.791       1.159       3.567

           -------------------------------------------------
          | TOTAL ENERGY              -38.815173102258 Eh   |
          | GRADIENT NORM               0.000783726688 Eh/α |
          | HOMO-LUMO GAP               2.985643235826 eV   |
           -------------------------------------------------

 * finished run on 2024/09/13 at 17:42:33.476
