   * xtb version 6.6.0 (conda-forge) compiled by 'runner@Mac-1676020848589.local' on 2023-02-10
          program call               : xtb --opt --gfn2 water.xyz

   ID    Z sym.   atoms
    1    8 O      1
    2    1 H      2, 3

          :  Hamiltonian                  GFN2-xTB          :
 * total energy  :    -5.0689818 Eh     change       -0.8881784E-15 Eh
 * total energy  :    -5.0703652 Eh     change       -0.1383331E-02 Eh
 * total energy  :    -5.0705335 Eh     change       -0.1682890E-03 Eh
 * total energy  :    -5.0705430 Eh     change       -0.9579951E-05 Eh
 * total energy  :    -5.0705441 Eh     change       -0.1056501E-05 Eh
   *** GEOMETRY OPTIMIZATION CONVERGED AFTER 5 ITERATIONS ***

 final structure:
================
3
 xtb: 6.6.0 (conda-forge)
O            0.00836608308436        0.37877757944896        0.00000000000000
H           -0.77687211731385       -0.17232174216861       -0.00000000000000
H            0.76850603422949       -0.20645583728034        0.00000000000000

          :  Hamiltonian                  GFN2-xTB          :
         :: total energy              -5.070544094233 Eh    ::
         :: gradient norm              0.000338003196 Eh/a0 ::
         :: HOMO-LUMO gap             14.376583858492 eV    ::
         :: SCC energy                -5.104871510249 Eh    ::
         :: -> dispersion             -0.000141078775 Eh    ::
         :: repulsion energy           0.034327415991 Eh    ::

    * Orbital Energies and Occupations

         #    Occupation            Energy/Eh            Energy/eV
      -------------------------------------------------------------
         1        2.0000           -0.6800052             -18.5039
         2        2.0000           -0.5683764             -15.4663
         3        2.0000           -0.5106974             -13.8968
         4        2.0000           -0.4463313             -12.1453 (HOMO)
         5                          0.0819984               2.2313 (LUMO)
         6                          0.2516535               6.8478
      -------------------------------------------------------------
                  HL-Gap            0.5283297 Eh           14.3766 eV

     #   Z          covCN         q      C6AA      α(0)
     1   8 O        1.611    -0.565    24.359     6.661
     2   1 H        0.805     0.282     0.776     1.384
     3   1 H        0.805     0.282     0.776     1.384

Wiberg/Mayer (AO) data.
largest (>0.10) Wiberg bond orders for each atom

     #   Z sym  total        # sym  WBO       # sym  WBO       # sym  WBO
 ---------------------------------------------------------------------------
     1   8 O    1.840 --     3 H    0.920     2 H    0.920
     2   1 H    0.920 --     1 O    0.920
     3   1 H    0.920 --     1 O    0.920
 ---------------------------------------------------------------------------

molecular dipole:
                 x           y           z       tot (Debye)
 q only:       -0.013      -0.606      -0.000
   full:       -0.019      -0.871       0.000       2.215

           -------------------------------------------------
          | TOTAL ENERGY               -5.070544094233 Eh   |
          | GRADIENT NORM               0.000338003196 Eh/α |
          | HOMO-LUMO GAP              14.376583858492 eV   |
           -------------------------------------------------

 * finished run on 2024/09/09 at 11:45:57.568
