   * xtb version 6.6.0 (conda-forge) compiled by 'runner@Mac-1676020848589.local' on 2023-02-10
          program call               : xtb paraxanthine.xyz --opt --gfn2

   ID    Z sym.   atoms
    1    6 C      1, 3, 5-7, 10, 13
    2    7 N      2, 4, 9, 12
    3    8 O      8, 11
    4    1 H      14-21

          :  Hamiltonian                  GFN2-xTB          :
 * total energy  :   -38.9616502 Eh     change       -0.1538112E-09 Eh
 * total energy  :   -38.9785138 Eh     change       -0.1686361E-01 Eh
 * total energy  :   -38.9823379 Eh     change       -0.3824114E-02 Eh
 * total energy  :   -38.9826508 Eh     change       -0.3128304E-03 Eh
 * total energy  :   -38.9827293 Eh     change       -0.7857792E-04 Eh
 * total energy  :   -38.9827378 Eh     change       -0.8502340E-05 Eh
 * total energy  :   -38.9827431 Eh     change       -0.5218898E-05 Eh
 * total energy  :   -38.9827450 Eh     change       -0.1970427E-05 Eh
   *** GEOMETRY OPTIMIZATION CONVERGED AFTER 8 ITERATIONS ***

 final structure:
================
21
 xtb: 6.6.0 (conda-forge)
C           -2.71431506785602       -1.14603798423139        0.39464037938332
N           -1.97863425884100        0.01400968439600       -0.01847966709343
C           -2.45287230481728        1.19837102957889       -0.44147141467302
N           -1.51015578600018        2.06633371344132       -0.74744712931358
C           -0.35711622701672        1.40935205225101       -0.50971774723378
C           -0.60809826082082        0.12372844145449       -0.05350470085643
C            0.43706598658221       -0.79786342691602        0.28449601707217
O            0.30258875650169       -1.93569633222449        0.68867813886116
N            1.70196712231390       -0.23060389837862        0.08913335181422
C            1.99527253215726        1.04947095890589       -0.36165760965548
O            3.13030434803844        1.44431365752106       -0.49207632815819
N            0.91882185737427        1.85423132498333       -0.66274215252449
C            2.84606381109062       -1.07250622942862        0.40023090987740
H           -2.47009994950419       -1.39356880445275        1.42875345839937
H           -2.44212179053936       -2.00016518605400       -0.22688110944709
H           -3.78066860876729       -0.94855079355621        0.30466082912998
H           -3.49965141732030        1.41386925838877       -0.52182200773947
H            1.10651656746893        2.79058450370513       -0.99109276645546
H            2.55118019906516       -2.11064497978608        0.26206343467224
H            3.15608934839210       -0.92134036675734        1.43508798077257
H            3.66776314249856       -0.80748662284036       -0.26085186683201

          :  Hamiltonian                  GFN2-xTB          :
         :: total energy             -38.982745037417 Eh    ::
         :: gradient norm              0.000597670489 Eh/a0 ::
         :: HOMO-LUMO gap              3.562504447688 eV    ::
         :: SCC energy               -39.452602206445 Eh    ::
         :: -> dispersion             -0.020003634115 Eh    ::
         :: repulsion energy           0.469794421138 Eh    ::

    * Orbital Energies and Occupations

         #    Occupation            Energy/Eh            Energy/eV
      -------------------------------------------------------------
         1        2.0000           -0.7254786             -19.7413
       ...           ...                  ...                  ...
        22        2.0000           -0.5241858             -14.2638
        23        2.0000           -0.5125773             -13.9479
        24        2.0000           -0.5068627             -13.7924
        25        2.0000           -0.5054153             -13.7530
        26        2.0000           -0.5014269             -13.6445
        27        2.0000           -0.4784010             -13.0180
        28        2.0000           -0.4764806             -12.9657
        29        2.0000           -0.4412168             -12.0061
        30        2.0000           -0.4333257             -11.7914
        31        2.0000           -0.4221859             -11.4883
        32        2.0000           -0.4190080             -11.4018
        33        2.0000           -0.4072293             -11.0813
        34        2.0000           -0.3979237             -10.8281 (HOMO)
        35                         -0.2670040              -7.2655 (LUMO)
        36                         -0.2232390              -6.0746
        37                         -0.2087517              -5.6804
        38                         -0.1253680              -3.4114
        39                         -0.0438421              -1.1930
        40                          0.0014907               0.0406
        41                          0.0245693               0.6686
        42                          0.0943580               2.5676
        43                          0.0956459               2.6027
        44                          0.1147626               3.1228
        45                          0.1272956               3.4639
       ...                                ...                  ...
        60                          0.6952900              18.9198
      -------------------------------------------------------------
                  HL-Gap            0.1309196 Eh            3.5625 eV

     #   Z          covCN         q      C6AA      α(0)
     1   6 C        3.689    -0.056    21.781     6.679
     2   7 N        2.838     0.005    21.162     6.832
     3   6 C        3.210     0.088    25.452     8.213
     4   7 N        1.895    -0.282    28.166     7.868
     5   6 C        3.185     0.132    24.708     8.111
     6   6 C        3.121    -0.038    28.756     8.782
     7   6 C        2.766     0.266    22.514     7.771
     8   8 O        0.858    -0.429    22.261     6.326
     9   7 N        2.748    -0.111    23.415     7.187
    10   6 C        2.713     0.324    21.500     7.590
    11   8 O        0.860    -0.435    22.393     6.345
    12   7 N        2.696    -0.161    24.488     7.350
    13   6 C        3.707    -0.045    21.519     6.631
    14   1 H        0.924     0.083     1.951     2.184
    15   1 H        0.924     0.083     1.944     2.180
    16   1 H        0.925     0.067     2.116     2.275
    17   1 H        0.926     0.058     2.223     2.331
    18   1 H        0.860     0.217     1.023     1.585
    19   1 H        0.925     0.086     1.920     2.167
    20   1 H        0.924     0.065     2.139     2.287
    21   1 H        0.925     0.082     1.954     2.186

Wiberg/Mayer (AO) data.
largest (>0.10) Wiberg bond orders for each atom

     #   Z sym  total        # sym  WBO       # sym  WBO       # sym  WBO
 ---------------------------------------------------------------------------
     1   6 C    3.958 --     2 N    1.000    16 H    0.981    15 H    0.969
                            14 H    0.969
     2   7 N    3.655 --     3 C    1.307     6 C    1.152     1 C    1.000
                             4 N    0.107
     3   6 C    3.954 --     4 N    1.473     2 N    1.307    17 H    0.962
     4   7 N    3.008 --     3 C    1.473     5 C    1.294     2 N    0.107
     5   6 C    3.965 --     6 C    1.351     4 N    1.294    12 N    1.141
     6   6 C    3.937 --     5 C    1.351     2 N    1.152     7 C    1.106
     7   6 C    3.960 --     8 O    1.657     6 C    1.106     9 N    1.093
     8   8 O    2.012 --     7 C    1.657     9 N    0.147
     9   7 N    3.549 --    10 C    1.113     7 C    1.093    13 C    0.982
                             8 O    0.147    11 O    0.134
    10   6 C    3.960 --    11 O    1.643    12 N    1.127     9 N    1.113
    11   8 O    1.995 --    10 C    1.643    12 N    0.140     9 N    0.134
    12   7 N    3.502 --     5 C    1.141    10 C    1.127    18 H    0.921
                            11 O    0.140
    13   6 C    3.948 --     9 N    0.982    21 H    0.975    19 H    0.974
                            20 H    0.974
    14   1 H    0.993 --     1 C    0.969
    15   1 H    0.993 --     1 C    0.969
    16   1 H    0.995 --     1 C    0.981
    17   1 H    0.996 --     3 C    0.962
    18   1 H    0.953 --    12 N    0.921
    19   1 H    0.993 --    13 C    0.974
    20   1 H    0.995 --    13 C    0.974
    21   1 H    0.993 --    13 C    0.975
 ---------------------------------------------------------------------------

molecular dipole:
                 x           y           z       tot (Debye)
 q only:       -1.442      -0.181       0.020
   full:       -1.647      -0.258       0.070       4.240

           -------------------------------------------------
          | TOTAL ENERGY              -38.982745037417 Eh   |
          | GRADIENT NORM               0.000597670489 Eh/α |
          | HOMO-LUMO GAP               3.562504447688 eV   |
           -------------------------------------------------

 * finished run on 2024/09/21 at 22:08:09.400
