   * xtb version 6.6.0 (conda-forge) compiled by 'runner@Mac-1676020848589.local' on 2023-02-10
          program call               : xtb caffeine.xyz --opt --gfn2

   ID    Z sym.   atoms
    1    6 C      1, 3, 5-7, 10, 13, 14
    2    7 N      2, 4, 9, 12
    3    8 O      8, 11
    4    1 H      15-24

          :  Hamiltonian                  GFN2-xTB          :
 * total energy  :   -42.1318960 Eh     change       -0.1148024E-09 Eh
 * total energy  :   -42.1491329 Eh     change       -0.1723691E-01 Eh
 * total energy  :   -42.1531254 Eh     change       -0.3992526E-02 Eh
 * total energy  :   -42.1535145 Eh     change       -0.3891130E-03 Eh
 * total energy  :   -42.1536270 Eh     change       -0.1124638E-03 Eh
 * total energy  :   -42.1536405 Eh     change       -0.1348255E-04 Eh
 * total energy  :   -42.1536508 Eh     change       -0.1037941E-04 Eh
 * total energy  :   -42.1536558 Eh     change       -0.4995497E-05 Eh
 * total energy  :   -42.1536696 Eh     change       -0.1376840E-04 Eh
 * total energy  :   -42.1536813 Eh     change       -0.1174138E-04 Eh
 * total energy  :   -42.1537314 Eh     change        0.1336742E-04 Eh
 * total energy  :   -42.1537743 Eh     change       -0.4293933E-04 Eh
 * total energy  :   -42.1537941 Eh     change       -0.1972885E-04 Eh
 * total energy  :   -42.1536901 Eh     change        0.1039794E-03 Eh
 * total energy  :   -42.1538228 Eh     change       -0.1327250E-03 Eh
 * total energy  :   -42.1538294 Eh     change       -0.6596840E-05 Eh
 * total energy  :   -42.1538391 Eh     change       -0.9662446E-05 Eh
 * total energy  :   -42.1538485 Eh     change       -0.9462702E-05 Eh
 * total energy  :   -42.1538504 Eh     change       -0.1851708E-05 Eh
   *** GEOMETRY OPTIMIZATION CONVERGED AFTER 22 ITERATIONS ***

 final structure:
================
24
 xtb: 6.6.0 (conda-forge)
C            3.32055319564365        0.02278387431817        0.18087015563979
N            2.06337695065489        0.69561610056496        0.02587985862363
C            1.82491534843325        2.01588179729007       -0.04937115590872
N            0.55176454383253        2.31516023761128       -0.19830061916386
C           -0.07795501154353        1.11968238565307       -0.22304769763860
C            0.83552248048908        0.08429337270819       -0.08451705697905
C            0.45018105240492       -1.29431403058618       -0.06744365457787
O            1.18488539339712       -2.25659933478187        0.05037569848951
N           -0.93409400061156       -1.42583767782391       -0.20775833396643
C           -1.87536134122932       -0.41310188844028       -0.34906251834917
O           -3.05510376980055       -0.66309739224710       -0.46020382695787
N           -1.40998025817580        0.88494156336875       -0.35055934654044
C           -2.34622899478901        1.97670592717678       -0.50880117187138
C           -1.48116517355225       -2.77277072207421       -0.21167357502722
H            3.28836585085123       -0.62601598768505        1.05703442747431
H            4.11319698098658        0.75985481493113        0.29435087706720
H            3.52012298519264       -0.60243332971983       -0.69093166253115
H            2.60040218116023        2.75371097195598        0.00726095328887
H           -3.27513712371420        1.71748603448120       -0.00340832720150
H           -1.89961847036617        2.86872857321806       -0.07725223972047
H           -2.55601305056487        2.14737363004183       -1.56618115729947
H           -2.11034267363567       -2.92215949536634        0.66576599512561
H           -2.08831697219374       -2.91855151314594       -1.10408481648922
H           -0.64447012286948       -3.46733791144876       -0.19764080548651

          :  Hamiltonian                  GFN2-xTB          :
         :: total energy             -42.153850386506 Eh    ::
         :: gradient norm              0.000321496620 Eh/a0 ::
         :: HOMO-LUMO gap              3.422738316138 eV    ::
         :: SCC energy               -42.666595845454 Eh    ::
         :: -> dispersion             -0.023328922218 Eh    ::
         :: repulsion energy           0.512645518955 Eh    ::

    * Orbital Energies and Occupations

         #    Occupation            Energy/Eh            Energy/eV
      -------------------------------------------------------------
         1        2.0000           -0.7199610             -19.5911
       ...           ...                  ...                  ...
        25        2.0000           -0.5058733             -13.7655
        26        2.0000           -0.5046319             -13.7317
        27        2.0000           -0.5034483             -13.6995
        28        2.0000           -0.4946003             -13.4588
        29        2.0000           -0.4813424             -13.0980
        30        2.0000           -0.4742342             -12.9046
        31        2.0000           -0.4602735             -12.5247
        32        2.0000           -0.4362256             -11.8703
        33        2.0000           -0.4276291             -11.6364
        34        2.0000           -0.4182475             -11.3811
        35        2.0000           -0.4139235             -11.2634
        36        2.0000           -0.4041345             -10.9971
        37        2.0000           -0.3884114             -10.5692 (HOMO)
        38                         -0.2626281              -7.1465 (LUMO)
        39                         -0.2185953              -5.9483
        40                         -0.2049210              -5.5762
        41                         -0.1215489              -3.3075
        42                         -0.0433352              -1.1792
        43                          0.0028322               0.0771
        44                          0.0225248               0.6129
        45                          0.0854115               2.3242
        46                          0.0925688               2.5189
        47                          0.1184422               3.2230
        48                          0.1290236               3.5109
       ...                                ...                  ...
        66                          0.6955433              18.9267
      -------------------------------------------------------------
                  HL-Gap            0.1257833 Eh            3.4227 eV

     #   Z          covCN         q      C6AA      α(0)
     1   6 C        3.689    -0.055    21.755     6.675
     2   7 N        2.837     0.003    21.213     6.841
     3   6 C        3.203     0.089    25.484     8.224
     4   7 N        1.896    -0.286    28.255     7.880
     5   6 C        3.193     0.123    24.836     8.127
     6   6 C        3.121    -0.041    28.823     8.793
     7   6 C        2.764     0.264    22.555     7.778
     8   8 O        0.858    -0.436    22.422     6.349
     9   7 N        2.750    -0.118    23.559     7.209
    10   6 C        2.731     0.313    21.680     7.623
    11   8 O        0.860    -0.438    22.464     6.355
    12   7 N        2.741    -0.076    22.718     7.079
    13   6 C        3.700    -0.050    21.629     6.651
    14   6 C        3.709    -0.041    21.459     6.621
    15   1 H        0.924     0.084     1.942     2.179
    16   1 H        0.925     0.066     2.133     2.284
    17   1 H        0.924     0.080     1.974     2.197
    18   1 H        0.926     0.055     2.263     2.352
    19   1 H        0.925     0.085     1.929     2.172
    20   1 H        0.925     0.085     1.932     2.173
    21   1 H        0.924     0.068     2.112     2.273
    22   1 H        0.925     0.067     2.118     2.276
    23   1 H        0.925     0.071     2.071     2.251
    24   1 H        0.925     0.090     1.881     2.145

Wiberg/Mayer (AO) data.
largest (>0.10) Wiberg bond orders for each atom

     #   Z sym  total        # sym  WBO       # sym  WBO       # sym  WBO
 ---------------------------------------------------------------------------
     1   6 C    3.959 --     2 N    1.000    16 H    0.981    15 H    0.970
                            17 H    0.969
     2   7 N    3.652 --     3 C    1.306     6 C    1.149     1 C    1.000
                             4 N    0.109
     3   6 C    3.955 --     4 N    1.477     2 N    1.306    18 H    0.962
     4   7 N    3.007 --     3 C    1.477     5 C    1.285     2 N    0.109
     5   6 C    3.967 --     6 C    1.346     4 N    1.285    12 N    1.144
     6   6 C    3.935 --     5 C    1.346     2 N    1.149     7 C    1.110
     7   6 C    3.960 --     8 O    1.645     6 C    1.110     9 N    1.097
     8   8 O    2.003 --     7 C    1.645     9 N    0.147
     9   7 N    3.545 --    10 C    1.107     7 C    1.097    14 C    0.982
                             8 O    0.147    11 O    0.131
    10   6 C    3.961 --    11 O    1.635    12 N    1.122     9 N    1.107
    11   8 O    1.989 --    10 C    1.635    12 N    0.139     9 N    0.131
    12   7 N    3.563 --     5 C    1.144    10 C    1.122    13 C    0.981
                            11 O    0.139
    13   6 C    3.948 --    12 N    0.981    20 H    0.977    19 H    0.975
                            21 H    0.973
    14   6 C    3.948 --     9 N    0.982    23 H    0.975    22 H    0.975
                            24 H    0.973
    15   1 H    0.993 --     1 C    0.970
    16   1 H    0.995 --     1 C    0.981
    17   1 H    0.993 --     1 C    0.969
    18   1 H    0.996 --     3 C    0.962
    19   1 H    0.992 --    13 C    0.975
    20   1 H    0.992 --    13 C    0.977
    21   1 H    0.994 --    13 C    0.973
    22   1 H    0.995 --    14 C    0.975
    23   1 H    0.994 --    14 C    0.975
    24   1 H    0.991 --    14 C    0.973
 ---------------------------------------------------------------------------

molecular dipole:
                 x           y           z       tot (Debye)
 q only:        1.027       0.931       0.084
   full:        1.357       0.840       0.107       4.067

           -------------------------------------------------
          | TOTAL ENERGY              -42.153850386506 Eh   |
          | GRADIENT NORM               0.000321496620 Eh/α |
          | HOMO-LUMO GAP               3.422738316138 eV   |
           -------------------------------------------------

 * finished run on 2024/09/10 at 11:25:31.922
