   * xtb version 6.6.0 (conda-forge) compiled by 'runner@Mac-1676020848589.local' on 2023-02-10
          program call               : xtb quinoline.xyz --opt --gfn2

   ID    Z sym.   atoms
    1    6 C      1-9
    2    7 N      10
    3    1 H      11-17

          :  Hamiltonian                  GFN2-xTB          :
 * total energy  :   -25.7379416 Eh     change       -0.4782201E-09 Eh
 * total energy  :   -25.7447690 Eh     change       -0.6827436E-02 Eh
 * total energy  :   -25.7456848 Eh     change       -0.9157492E-03 Eh
 * total energy  :   -25.7457456 Eh     change       -0.6088322E-04 Eh
 * total energy  :   -25.7457655 Eh     change       -0.1981651E-04 Eh
 * total energy  :   -25.7457663 Eh     change       -0.8313209E-06 Eh
   *** GEOMETRY OPTIMIZATION CONVERGED AFTER 6 ITERATIONS ***

 final structure:
================
17
 xtb: 6.6.0 (conda-forge)
C           -2.27692755526391        0.71124878719440        0.19854462254932
C           -2.36462970539482       -0.62253377661937       -0.23352736864892
C           -1.23467071886954       -1.35855044402278       -0.45579953268631
C            0.03800753911447       -0.78515083232737       -0.25311702481971
C            0.12714563055677        0.56550411670015        0.18442550004796
C           -1.05813086698797        1.29497335985385        0.40382452698749
C            1.41684913355966        1.10363854243759        0.37594935229536
C            2.51095597916690        0.31826153923948        0.13724056722132
C            2.30642941925079       -1.00598532814904       -0.29335175639600
N            1.13300971859173       -1.53853256289184       -0.48147795214992
H           -3.18413580030423        1.27279714169890        0.36750982258685
H           -3.33902663882519       -1.06223097015977       -0.38892927950937
H           -1.27958525970277       -2.38398242465451       -0.78767463153109
H           -0.98319191723808        2.32112894582212        0.73634474625985
H            1.51983818089573        2.12805988835904        0.70829524889612
H            3.51428688822572        0.69246188475024        0.27187966482313
H            3.15397597322472       -1.65110786723110       -0.49013650592606

          :  Hamiltonian                  GFN2-xTB          :
         :: total energy             -25.745766288742 Eh    ::
         :: gradient norm              0.000218021729 Eh/a0 ::
         :: HOMO-LUMO gap              2.421818458873 eV    ::
         :: SCC energy               -26.222524265046 Eh    ::
         :: -> dispersion             -0.015711774978 Eh    ::
         :: repulsion energy           0.476730477984 Eh    ::

    * Orbital Energies and Occupations

         #    Occupation            Energy/Eh            Energy/eV
      -------------------------------------------------------------
         1        2.0000           -0.6619142             -18.0116
       ...           ...                  ...                  ...
        12        2.0000           -0.5110268             -13.9057
        13        2.0000           -0.5009483             -13.6315
        14        2.0000           -0.4903154             -13.3422
        15        2.0000           -0.4815071             -13.1025
        16        2.0000           -0.4715713             -12.8321
        17        2.0000           -0.4697481             -12.7825
        18        2.0000           -0.4670912             -12.7102
        19        2.0000           -0.4457705             -12.1300
        20        2.0000           -0.4370212             -11.8920
        21        2.0000           -0.4271763             -11.6241
        22        2.0000           -0.4090172             -11.1299
        23        2.0000           -0.3948018             -10.7431
        24        2.0000           -0.3643919              -9.9156 (HOMO)
        25                         -0.2753917              -7.4938 (LUMO)
        26                         -0.2377521              -6.4696
        27                         -0.2024790              -5.5097
        28                         -0.1559321              -4.2431
        29                         -0.0670375              -1.8242
        30                          0.1058382               2.8800
        31                          0.1188826               3.2350
        32                          0.1327275               3.6117
        33                          0.1468154               3.9951
        34                          0.1598304               4.3492
        35                          0.1782116               4.8494
       ...                                ...                  ...
        47                          0.6901044              18.7787
      -------------------------------------------------------------
                  HL-Gap            0.0890002 Eh            2.4218 eV

     #   Z          covCN         q      C6AA      α(0)
     1   6 C        2.916    -0.029    28.719     8.788
     2   6 C        2.916    -0.027    28.677     8.781
     3   6 C        2.919    -0.038    28.934     8.821
     4   6 C        2.974     0.091    25.978     8.360
     5   6 C        2.985     0.002    27.963     8.674
     6   6 C        2.916    -0.035    28.870     8.811
     7   6 C        2.924    -0.017    28.435     8.745
     8   6 C        2.910    -0.042    29.045     8.837
     9   6 C        2.904     0.065    26.538     8.447
    10   7 N        1.840    -0.231    26.903     7.687
    11   1 H        0.926     0.035     2.518     2.481
    12   1 H        0.926     0.037     2.490     2.468
    13   1 H        0.926     0.053     2.281     2.362
    14   1 H        0.925     0.033     2.542     2.493
    15   1 H        0.925     0.033     2.547     2.496
    16   1 H        0.926     0.033     2.546     2.495
    17   1 H        0.925     0.036     2.500     2.473

Wiberg/Mayer (AO) data.
largest (>0.10) Wiberg bond orders for each atom

     #   Z sym  total        # sym  WBO       # sym  WBO       # sym  WBO
 ---------------------------------------------------------------------------
     1   6 C    3.992 --     6 C    1.558     2 C    1.320    11 H    0.971
     2   6 C    3.992 --     3 C    1.560     1 C    1.320    12 H    0.971
     3   6 C    3.991 --     2 C    1.560     4 C    1.270    13 H    0.967
                             6 C    0.119
     4   6 C    3.982 --    10 N    1.284     3 C    1.270     5 C    1.238
     5   6 C    3.991 --     7 C    1.284     6 C    1.279     4 C    1.238
     6   6 C    3.992 --     1 C    1.558     5 C    1.279    14 H    0.968
                             3 C    0.119
     7   6 C    3.991 --     8 C    1.558     5 C    1.284    15 H    0.967
                            10 N    0.107
     8   6 C    3.992 --     7 C    1.558     9 C    1.303    16 H    0.970
     9   6 C    3.981 --    10 N    1.556     8 C    1.303    17 H    0.963
    10   7 N    3.066 --     9 C    1.556     4 C    1.284     7 C    0.107
    11   1 H    0.998 --     1 C    0.971
    12   1 H    0.998 --     2 C    0.971
    13   1 H    0.997 --     3 C    0.967
    14   1 H    0.999 --     6 C    0.968
    15   1 H    0.998 --     7 C    0.967
    16   1 H    0.998 --     8 C    0.970
    17   1 H    0.998 --     9 C    0.963
 ---------------------------------------------------------------------------

molecular dipole:
                 x           y           z       tot (Debye)
 q only:       -0.151       0.337       0.107
   full:       -0.065       0.731       0.235       1.958

           -------------------------------------------------
          | TOTAL ENERGY              -25.745766288742 Eh   |
          | GRADIENT NORM               0.000218021729 Eh/α |
          | HOMO-LUMO GAP               2.421818458873 eV   |
           -------------------------------------------------

 * finished run on 2024/09/13 at 15:43:34.914
