   * xtb version 6.6.0 (conda-forge) compiled by 'runner@Mac-1676020848589.local' on 2023-02-10
          program call               : xtb alizarin.xyz --opt --gfn2

   ID    Z sym.   atoms
    1    6 C      1-7, 9-11, 13-16
    2    8 O      8, 12, 17, 18
    3    1 H      19-26

          :  Hamiltonian                  GFN2-xTB          :
 * total energy  :   -50.2839105 Eh     change       -0.6172485E-09 Eh
 * total energy  :   -50.3030170 Eh     change       -0.1910649E-01 Eh
 * total energy  :   -50.3090067 Eh     change       -0.5989697E-02 Eh
 * total energy  :   -50.3095982 Eh     change       -0.5915229E-03 Eh
 * total energy  :   -50.3097297 Eh     change       -0.1314831E-03 Eh
 * total energy  :   -50.3097568 Eh     change       -0.2710809E-04 Eh
 * total energy  :   -50.3097620 Eh     change       -0.5223064E-05 Eh
 * total energy  :   -50.3097628 Eh     change       -0.7460845E-06 Eh
   *** GEOMETRY OPTIMIZATION CONVERGED AFTER 8 ITERATIONS ***

 final structure:
================
26
 xtb: 6.6.0 (conda-forge)
C           -4.10220208624113        0.34393964222509        0.00529654053383
C           -3.70804007025456        1.60651953216998        0.42480713019945
C           -2.36420224349495        1.90112065712692        0.55976642488592
C           -1.39394896933035        0.94227826386049        0.27875886867760
C           -1.79211758168535       -0.32985840954830       -0.14395421196181
C           -3.14935971009944       -0.61631667916426       -0.27667501585867
C           -0.80748614201937       -1.38402454260731       -0.45530254806985
O           -1.14746736740972       -2.49423542762849       -0.82399036929226
C            0.61557584930981       -1.01955727174878       -0.29545971025544
C            1.01762675240722        0.26089144229463        0.13004768804615
C            0.03270678384220        1.31782136821532        0.44225360837321
O            0.34600215914766        2.43144290316683        0.81130331610805
C            2.38641094866549        0.53121691546100        0.25789364167776
C            3.32571922582650       -0.47980845199828       -0.04088672389297
C            2.91330492166293       -1.72948794855643       -0.45676349928718
C            1.56103596526971       -1.99415036756566       -0.58228520542167
O            4.64054772349464       -0.13365208937459        0.10984582532051
O            2.82933401659692        1.72859005471544        0.65776293406201
H           -5.15140318742228        0.11133920722715       -0.10089589987193
H           -4.45002280593518        2.35936975057072        0.64601764530999
H           -2.03490835048300        2.87701417275954        0.88473139726422
H           -3.43099352048037       -1.60598910506526       -0.60468826289059
H            3.64575186211128       -2.49253604686710       -0.68155360353706
H            1.21545536971515       -2.96372698193369       -0.90569871379103
H            5.20461998567499       -0.88174479023496       -0.11510362639840
H            3.79806047113118        1.71354420250000        0.68157237007017

          :  Hamiltonian                  GFN2-xTB          :
         :: total energy             -50.309762757106 Eh    ::
         :: gradient norm              0.000194165778 Eh/a0 ::
         :: HOMO-LUMO gap              1.823671385306 eV    ::
         :: SCC energy               -51.015919474430 Eh    ::
         :: -> dispersion             -0.029944789038 Eh    ::
         :: repulsion energy           0.706204969564 Eh    ::

    * Orbital Energies and Occupations

         #    Occupation            Energy/Eh            Energy/eV
      -------------------------------------------------------------
         1        2.0000           -0.7449867             -20.2721
       ...           ...                  ...                  ...
        32        2.0000           -0.4891752             -13.3111
        33        2.0000           -0.4888962             -13.3035
        34        2.0000           -0.4760262             -12.9533
        35        2.0000           -0.4727659             -12.8646
        36        2.0000           -0.4606342             -12.5345
        37        2.0000           -0.4556303             -12.3983
        38        2.0000           -0.4361557             -11.8684
        39        2.0000           -0.4260708             -11.5940
        40        2.0000           -0.4214017             -11.4669
        41        2.0000           -0.4209155             -11.4537
        42        2.0000           -0.4020921             -10.9415
        43        2.0000           -0.3975607             -10.8182
        44        2.0000           -0.3844849             -10.4624 (HOMO)
        45                         -0.3174662              -8.6387 (LUMO)
        46                         -0.2715392              -7.3890
        47                         -0.2444624              -6.6522
        48                         -0.2374937              -6.4625
        49                         -0.1862687              -5.0686
        50                         -0.1819323              -4.9506
        51                         -0.1127761              -3.0688
        52                         -0.0621171              -1.6903
        53                          0.0152076               0.4138
        54                          0.0608622               1.6561
        55                          0.0774931               2.1087
       ...                                ...                  ...
        80                          0.7369526              20.0535
      -------------------------------------------------------------
                  HL-Gap            0.0670187 Eh            1.8237 eV

     #   Z          covCN         q      C6AA      α(0)
     1   6 C        2.918    -0.022    28.546     8.761
     2   6 C        2.918    -0.021    28.523     8.758
     3   6 C        2.924    -0.017    28.432     8.744
     4   6 C        2.975    -0.013    28.324     8.730
     5   6 C        2.975    -0.013    28.324     8.730
     6   6 C        2.924    -0.016    28.420     8.742
     7   6 C        2.832     0.225    23.268     7.905
     8   8 O        0.858    -0.371    21.116     6.161
     9   6 C        2.973    -0.024    28.608     8.773
    10   6 C        2.968    -0.040    28.985     8.831
    11   6 C        2.828     0.229    23.198     7.892
    12   8 O        0.858    -0.347    20.646     6.092
    13   6 C        2.845     0.148    24.783     8.159
    14   6 C        2.845     0.113    25.501     8.276
    15   6 C        2.912    -0.065    29.607     8.922
    16   6 C        2.926    -0.029    28.737     8.791
    17   8 O        1.659    -0.395    20.742     6.148
    18   8 O        1.660    -0.333    19.598     5.976
    19   1 H        0.926     0.046     2.370     2.407
    20   1 H        0.926     0.046     2.364     2.404
    21   1 H        0.926     0.069     2.099     2.265
    22   1 H        0.926     0.067     2.123     2.278
    23   1 H        0.925     0.046     2.365     2.405
    24   1 H        0.926     0.076     2.020     2.222
    25   1 H        0.805     0.310     0.691     1.306
    26   1 H        0.805     0.329     0.640     1.257

Wiberg/Mayer (AO) data.
largest (>0.10) Wiberg bond orders for each atom

     #   Z sym  total        # sym  WBO       # sym  WBO       # sym  WBO
 ---------------------------------------------------------------------------
     1   6 C    3.989 --     6 C    1.448     2 C    1.424    19 H    0.970
     2   6 C    3.988 --     3 C    1.445     1 C    1.424    20 H    0.970
     3   6 C    3.985 --     2 C    1.445     4 C    1.396    21 H    0.964
     4   6 C    3.988 --     3 C    1.396     5 C    1.339    11 C    1.019
     5   6 C    3.989 --     6 C    1.389     4 C    1.339     7 C    1.032
     6   6 C    3.985 --     1 C    1.448     5 C    1.389    22 H    0.964
     7   6 C    3.935 --     8 O    1.763     9 C    1.036     5 C    1.032
     8   8 O    2.034 --     7 C    1.763
     9   6 C    3.987 --    16 C    1.410    10 C    1.305     7 C    1.036
    10   6 C    3.983 --    13 C    1.340     9 C    1.305    11 C    1.042
    11   6 C    3.941 --    12 O    1.782    10 C    1.042     4 C    1.019
    12   8 O    2.063 --    11 C    1.782
    13   6 C    3.949 --    10 C    1.340    14 C    1.259    18 O    1.143
    14   6 C    3.935 --    15 C    1.413    13 C    1.259    17 O    1.063
    15   6 C    3.986 --    14 C    1.413    16 C    1.413    23 H    0.964
    16   6 C    3.985 --    15 C    1.413     9 C    1.410    24 H    0.963
    17   8 O    2.111 --    14 C    1.063    25 H    0.882
    18   8 O    2.208 --    13 C    1.143    26 H    0.864
    19   1 H    0.997 --     1 C    0.970
    20   1 H    0.997 --     2 C    0.970
    21   1 H    0.995 --     3 C    0.964
    22   1 H    0.995 --     6 C    0.964
    23   1 H    0.997 --    15 C    0.964
    24   1 H    0.994 --    16 C    0.963
    25   1 H    0.903 --    17 O    0.882
    26   1 H    0.891 --    18 O    0.864
 ---------------------------------------------------------------------------

molecular dipole:
                 x           y           z       tot (Debye)
 q only:        0.769      -0.297      -0.073
   full:        1.102      -0.583      -0.156       3.194

           -------------------------------------------------
          | TOTAL ENERGY              -50.309762757106 Eh   |
          | GRADIENT NORM               0.000194165778 Eh/α |
          | HOMO-LUMO GAP               1.823671385306 eV   |
           -------------------------------------------------

 * finished run on 2024/09/07 at 14:04:29.569
