   * xtb version 6.6.0 (conda-forge) compiled by 'runner@Mac-1676020848589.local' on 2023-02-10
          program call               : xtb input_molecule.xyz --gfnff --chrg 0 --uhf 2 --opt

   ID    Z sym.   atoms
    1    6 C      1-9
    2    8 O      10, 11, 13
    3    7 N      12
    4    1 H      14-24
          GFN-FF topology read from file successfully!
           -------------------------------------------------
          |                   G F N - F F                   |
          |          A general generic force-field          |
          |                  Version 1.0.3                  |
           -------------------------------------------------
          Number of HB bonds (bound hydrogen)     335
          Number of HB bonds (unbound hydrogen)   58
          Number of XB bonds                      0

 * total energy  :    -4.3475566 Eh     change        0.0000000E+00 Eh
 * total energy  :    -4.3589179 Eh     change       -0.1136127E-01 Eh
 * total energy  :    -4.3645736 Eh     change       -0.5655772E-02 Eh
 * total energy  :    -4.3658520 Eh     change       -0.1278355E-02 Eh
 * total energy  :    -4.3663904 Eh     change       -0.5383770E-03 Eh
 * total energy  :    -4.3664189 Eh     change       -0.2850683E-04 Eh
 * total energy  :    -4.3664549 Eh     change       -0.3602130E-04 Eh
 * total energy  :    -4.3664845 Eh     change       -0.2965978E-04 Eh
 * total energy  :    -4.3665321 Eh     change       -0.4752151E-04 Eh
 * total energy  :    -4.3666128 Eh     change       -0.8073827E-04 Eh
 * total energy  :    -4.3671832 Eh     change       -0.1455005E-04 Eh
 * total energy  :    -4.3672013 Eh     change       -0.1815572E-04 Eh
 * total energy  :    -4.3672240 Eh     change       -0.2263250E-04 Eh
 * total energy  :    -4.3672448 Eh     change       -0.2086295E-04 Eh
 * total energy  :    -4.3672610 Eh     change       -0.1616702E-04 Eh
 * total energy  :    -4.3672743 Eh     change       -0.1331965E-04 Eh
 * total energy  :    -4.3672845 Eh     change       -0.1018258E-04 Eh
 * total energy  :    -4.3672915 Eh     change       -0.6976487E-05 Eh
 * total energy  :    -4.3672958 Eh     change       -0.4292116E-05 Eh
   *** GEOMETRY OPTIMIZATION CONVERGED AFTER 33 ITERATIONS ***

 final structure:
================
24
 xtb: 6.6.0 (conda-forge)
C            1.38877909380540       -1.27799445506905        0.94947142948456
C            2.61130063587088       -0.73240129323619        1.26043769266797
C            3.00654825852336        0.49122220869523        0.72037605403715
C            2.12812728215511        1.14770508171712       -0.14229140307613
C            0.90735822942781        0.59532005432055       -0.44640116242342
C            0.52091177277055       -0.62593228015128        0.08571285335615
C           -0.81610761571975       -1.21070962698362       -0.25362352138017
C           -1.98384117934679       -0.52526556313049        0.45961481906605
C           -2.13652464570251        0.91102109387255        0.01379953046620
O           -1.98038736168026        1.19213546934531       -1.15330240837509
O           -2.46823857684223        1.80702802313124        0.96748064995385
N           -3.23413030770201       -1.22977075670196        0.23087505930364
O            4.23912759823963        1.01846798081702        1.05325576485424
H            1.09465324617265       -2.22051652560489        1.37801501891359
H            3.28667819673328       -1.23490808835001        1.92975668259573
H            2.41414976482273        2.09570630414108       -0.56150928167158
H            0.21871636780372        1.11950837633269       -1.08739680331692
H           -0.97821603671109       -1.13501735062150       -1.33314232298687
H           -0.82621933625443       -2.28023049272050       -0.02267800411377
H           -1.78434498640469       -0.52611648690807        1.54229780668916
H           -2.54908869012464        2.67787905158130        0.53288021813859
H           -3.98516169155461       -0.74462008720164        0.70303467095071
H           -3.44309711602747       -1.19381977727533       -0.75738757180268
H            4.36890709774466        1.88100914000110        0.60372422866906

         :: total energy              -4.367295780165 Eh    ::
         :: gradient norm              0.000792905505 Eh/a0 ::
         :: repulsion energy           0.308212967852 Eh    ::

           -------------------------------------------------
          | TOTAL ENERGY               -4.367295780165 Eh   |
          | GRADIENT NORM               0.000792905505 Eh/α |
           -------------------------------------------------

 * finished run on 2024/09/06 at 19:23:05.239
