   * xtb version 6.6.0 (conda-forge) compiled by 'runner@Mac-1676020848589.local' on 2023-02-10
          program call               : xtb methylliberine.xyz --opt --gfn2

   ID    Z sym.   atoms
    1    6 C      1, 3, 4, 6, 8, 10, 12, 14, 16
    2    7 N      2, 5, 7, 13
    3    8 O      9, 11, 15
    4    1 H      17-28

          :  Hamiltonian                  GFN2-xTB          :
 * total energy  :   -49.3608652 Eh     change       -0.2394458E-09 Eh
 * total energy  :   -49.3890789 Eh     change       -0.2821376E-01 Eh
 * total energy  :   -49.3981224 Eh     change       -0.9043504E-02 Eh
 * total energy  :   -49.3993222 Eh     change       -0.1199826E-02 Eh
 * total energy  :   -49.3997940 Eh     change       -0.4717255E-03 Eh
 * total energy  :   -49.3999602 Eh     change       -0.1661886E-03 Eh
 * total energy  :   -49.4000924 Eh     change       -0.1322860E-03 Eh
 * total energy  :   -49.4001869 Eh     change       -0.9441693E-04 Eh
 * total energy  :   -49.4002866 Eh     change       -0.9977660E-04 Eh
 * total energy  :   -49.4003849 Eh     change       -0.9826880E-04 Eh
 * total energy  :   -49.4008550 Eh     change       -0.1791348E-04 Eh
 * total energy  :   -49.4008630 Eh     change       -0.8063300E-05 Eh
 * total energy  :   -49.4008768 Eh     change       -0.1374271E-04 Eh
 * total energy  :   -49.4008886 Eh     change       -0.1187327E-04 Eh
 * total energy  :   -49.4008990 Eh     change       -0.1035000E-04 Eh
 * total energy  :   -49.4009052 Eh     change       -0.6228358E-05 Eh
 * total energy  :   -49.4008987 Eh     change        0.6543983E-05 Eh
 * total energy  :   -49.4009079 Eh     change       -0.9197867E-05 Eh
 * total energy  :   -49.4009098 Eh     change       -0.1977685E-05 Eh
   *** GEOMETRY OPTIMIZATION CONVERGED AFTER 31 ITERATIONS ***

 final structure:
================
28
 xtb: 6.6.0 (conda-forge)
C           -2.72719330859311        2.10698482724541       -1.10340302451990
N           -2.08922874796013        0.97604170024933       -0.48691944053454
C           -0.72731428351292        0.74724005175733       -0.39340512503075
C           -0.55933319156672       -0.45412628762613        0.27217247731863
N            0.63127346776309       -1.02000800679480        0.55425425733400
C            1.65738023632772       -0.33542489069825        0.14325301676938
N            1.60398554161864        0.85023692744777       -0.51504906558847
C            0.38585241924787        1.50614524375709       -0.84768891262152
O            0.39831545401328        2.56789754526143       -1.44039101480453
C            2.84047655769581        1.49433926753409       -0.90992663359470
O            2.89508598044588       -0.78387179472534        0.35680075650107
C            2.99466487395433       -2.02156243117540        1.04269060244205
N           -1.78844876428140       -0.94596650101426        0.57772169025598
C           -2.75945814510950       -0.06069391790841        0.10774994420637
O           -3.95700623814623       -0.20262963358288        0.21448211575449
C           -2.09390506691468       -2.16767700871679        1.26922747527762
H           -2.44242748124664        2.17517357107537       -2.15389673340657
H           -3.80274735469007        1.96165229742498       -1.01504217515426
H           -2.43142248361859        3.02919109493331       -0.60167635555714
H            3.45875667753494        1.69012481312164       -0.03476930884735
H            2.56762735442547        2.42990792300576       -1.39642663990927
H            3.39232862652629        0.85857945659163       -1.60147051714460
H            4.05953584524817       -2.22258378789190        1.13369495419793
H            2.53041097907964       -1.95207964291348        2.02755890986691
H            2.50085945164024       -2.81333700725260        0.47724709954973
H           -3.17918473893924       -2.25663772355866        1.29591277691326
H           -1.66071425778068       -3.01794540128157        0.74216515337130
H           -1.69836940316145       -2.13897068426462        2.28523371695488

          :  Hamiltonian                  GFN2-xTB          :
         :: total energy             -49.400909844503 Eh    ::
         :: gradient norm              0.000375723603 Eh/a0 ::
         :: HOMO-LUMO gap              3.116989364289 eV    ::
         :: SCC energy               -49.967140651461 Eh    ::
         :: -> dispersion             -0.027386023723 Eh    ::
         :: repulsion energy           0.566127658824 Eh    ::

    * Orbital Energies and Occupations

         #    Occupation            Energy/Eh            Energy/eV
      -------------------------------------------------------------
         1        2.0000           -0.7595218             -20.6676
       ...           ...                  ...                  ...
        31        2.0000           -0.4978709             -13.5478
        32        2.0000           -0.4960513             -13.4982
        33        2.0000           -0.4854434             -13.2096
        34        2.0000           -0.4822727             -13.1233
        35        2.0000           -0.4812882             -13.0965
        36        2.0000           -0.4760222             -12.9532
        37        2.0000           -0.4484486             -12.2029
        38        2.0000           -0.4344971             -11.8233
        39        2.0000           -0.4198873             -11.4257
        40        2.0000           -0.4162142             -11.3258
        41        2.0000           -0.4150937             -11.2953
        42        2.0000           -0.4055833             -11.0365
        43        2.0000           -0.3663207              -9.9681 (HOMO)
        44                         -0.2517735              -6.8511 (LUMO)
        45                         -0.2343464              -6.3769
        46                         -0.1755827              -4.7778
        47                         -0.1180509              -3.2123
        48                         -0.0420200              -1.1434
        49                         -0.0188155              -0.5120
        50                          0.0154734               0.4211
        51                          0.0301837               0.8213
        52                          0.0954023               2.5960
        53                          0.1004220               2.7326
        54                          0.1138575               3.0982
       ...                                ...                  ...
        76                          0.7011999              19.0806
      -------------------------------------------------------------
                  HL-Gap            0.1145473 Eh            3.1170 eV

     #   Z          covCN         q      C6AA      α(0)
     1   6 C        3.689    -0.045    21.569     6.647
     2   7 N        2.820    -0.070    22.600     7.061
     3   6 C        3.050    -0.037    28.869     8.812
     4   6 C        3.084     0.125    25.175     8.225
     5   7 N        1.832    -0.324    29.256     8.015
     6   6 C        2.850     0.289    22.115     7.707
     7   7 N        2.749    -0.098    23.163     7.148
     8   6 C        2.769     0.258    22.649     7.794
     9   8 O        0.857    -0.438    22.460     6.354
    10   6 C        3.702    -0.050    21.623     6.649
    11   8 O        1.707    -0.241    17.998     5.728
    12   6 C        3.661     0.022    20.472     6.492
    13   7 N        2.824    -0.081    22.809     7.093
    14   6 C        2.879     0.302    21.888     7.670
    15   8 O        0.857    -0.459    22.898     6.416
    16   6 C        3.689    -0.046    21.584     6.649
    17   1 H        0.924     0.070     2.087     2.259
    18   1 H        0.925     0.083     1.944     2.181
    19   1 H        0.924     0.069     2.095     2.263
    20   1 H        0.925     0.067     2.123     2.278
    21   1 H        0.925     0.102     1.764     2.077
    22   1 H        0.925     0.066     2.127     2.281
    23   1 H        0.925     0.078     1.996     2.210
    24   1 H        0.924     0.068     2.105     2.269
    25   1 H        0.924     0.068     2.109     2.271
    26   1 H        0.925     0.090     1.877     2.143
    27   1 H        0.925     0.066     2.135     2.285
    28   1 H        0.924     0.065     2.145     2.291

Wiberg/Mayer (AO) data.
largest (>0.10) Wiberg bond orders for each atom

     #   Z sym  total        # sym  WBO       # sym  WBO       # sym  WBO
 ---------------------------------------------------------------------------
     1   6 C    3.955 --     2 N    0.994    18 H    0.976    17 H    0.974
                            19 H    0.974
     2   7 N    3.554 --    14 C    1.157     3 C    1.108     1 C    0.994
                            15 O    0.159
     3   6 C    3.945 --     4 C    1.351     8 C    1.158     2 N    1.108
     4   6 C    3.968 --     3 C    1.351     5 N    1.215    13 N    1.181
     5   7 N    3.009 --     6 C    1.453     4 C    1.215
     6   6 C    3.939 --     5 N    1.453     7 N    1.209    11 O    1.116
     7   7 N    3.570 --     6 C    1.209     8 C    1.034    10 C    0.984
                             9 O    0.139
     8   6 C    3.958 --     9 O    1.633     3 C    1.158     7 N    1.034
     9   8 O    1.997 --     8 C    1.633     7 N    0.139
    10   6 C    3.948 --     7 N    0.984    20 H    0.974    22 H    0.974
                            21 H    0.968
    11   8 O    2.278 --     6 C    1.116    12 C    0.956
    12   6 C    3.917 --    23 H    0.980    25 H    0.977    24 H    0.977
                            11 O    0.956
    13   7 N    3.562 --     4 C    1.181    14 C    1.080    16 C    0.994
                            15 O    0.134
    14   6 C    3.958 --    15 O    1.605     2 N    1.157    13 N    1.080
    15   8 O    1.965 --    14 C    1.605     2 N    0.159    13 N    0.134
    16   6 C    3.955 --    13 N    0.994    27 H    0.975    26 H    0.975
                            28 H    0.975
    17   1 H    0.994 --     1 C    0.974
    18   1 H    0.992 --     1 C    0.976
    19   1 H    0.994 --     1 C    0.974
    20   1 H    0.994 --    10 C    0.974
    21   1 H    0.989 --    10 C    0.968
    22   1 H    0.994 --    10 C    0.974
    23   1 H    0.993 --    12 C    0.980
    24   1 H    0.995 --    12 C    0.977
    25   1 H    0.995 --    12 C    0.977
    26   1 H    0.991 --    16 C    0.975
    27   1 H    0.995 --    16 C    0.975
    28   1 H    0.995 --    16 C    0.975
 ---------------------------------------------------------------------------

molecular dipole:
                 x           y           z       tot (Debye)
 q only:        1.767      -1.149       0.592
   full:        1.934      -1.112       0.569       5.851

           -------------------------------------------------
          | TOTAL ENERGY              -49.400909844503 Eh   |
          | GRADIENT NORM               0.000375723603 Eh/α |
          | HOMO-LUMO GAP               3.116989364289 eV   |
           -------------------------------------------------

 * finished run on 2024/09/20 at 14:46:26.085
