   * xtb version 6.6.0 (conda-forge) compiled by 'runner@Mac-1676020848589.local' on 2023-02-10
          program call               : xtb vanillin.xyz --opt --gfn2

   ID    Z sym.   atoms
    1    6 C      1, 3-9
    2    8 O      2, 10, 11
    3    1 H      12-19

          :  Hamiltonian                  GFN2-xTB          :
 * total energy  :   -33.3628130 Eh     change       -0.3011067E-09 Eh
 * total energy  :   -33.3775907 Eh     change       -0.1477776E-01 Eh
 * total energy  :   -33.3815063 Eh     change       -0.3915550E-02 Eh
 * total energy  :   -33.3819985 Eh     change       -0.4921828E-03 Eh
 * total energy  :   -33.3821542 Eh     change       -0.1557524E-03 Eh
 * total energy  :   -33.3821816 Eh     change       -0.2739715E-04 Eh
 * total energy  :   -33.3821759 Eh     change        0.5681610E-05 Eh
 * total energy  :   -33.3821888 Eh     change       -0.1288961E-04 Eh
 * total energy  :   -33.3821771 Eh     change        0.1167029E-04 Eh
 * total energy  :   -33.3821892 Eh     change       -0.1201699E-04 Eh
 * total energy  :   -33.3821902 Eh     change       -0.1048484E-05 Eh
   *** GEOMETRY OPTIMIZATION CONVERGED AFTER 11 ITERATIONS ***

 final structure:
================
19
 xtb: 6.6.0 (conda-forge)
C           -2.46253207163860       -1.32381881596712       -0.63635128118359
O           -2.07196904611393        0.00945214304291       -0.40607471649479
C           -0.75126454769815        0.25006202183320       -0.11890122398690
C           -0.43996174010438        1.60971692567388        0.09891573116970
C            0.86343516424409        1.98173907654070        0.39791915756188
C            1.85683483849687        1.02654688691957        0.48315801398298
C            1.55703442169480       -0.31587591240670        0.26970231611035
C            0.24350816806559       -0.69769051044058       -0.03259773860157
C            2.59252084614243       -1.34254467526770        0.35559046733310
O            2.42178945022790       -2.52548653677856        0.18459521832867
O           -1.40694284314235        2.54707915432088        0.01689898928508
H           -2.28171500815469       -1.94806425472711        0.24333111026065
H           -1.93949005970149       -1.74745649067434       -1.49842682071727
H           -3.53099758092495       -1.28636274944497       -0.84196971671083
H            1.07133783882101        3.02714806006543        0.55923148251237
H            2.86925669885098        1.31987588256409        0.71593753158342
H            0.05336475852270       -1.74747200891053       -0.19080055782525
H            3.59746236804445       -0.94263912079417        0.59767046809135
H           -2.24157165563228        2.10589092445112       -0.19792843069933

          :  Hamiltonian                  GFN2-xTB          :
         :: total energy             -33.382190212340 Eh    ::
         :: gradient norm              0.000407099973 Eh/a0 ::
         :: HOMO-LUMO gap              2.871648333793 eV    ::
         :: SCC energy               -33.804624185404 Eh    ::
         :: -> dispersion             -0.015617546039 Eh    ::
         :: repulsion energy           0.422384795700 Eh    ::

    * Orbital Energies and Occupations

         #    Occupation            Energy/Eh            Energy/eV
      -------------------------------------------------------------
         1        2.0000           -0.7391055             -20.1121
       ...           ...                  ...                  ...
        17        2.0000           -0.5292656             -14.4021
        18        2.0000           -0.5288677             -14.3912
        19        2.0000           -0.5227768             -14.2255
        20        2.0000           -0.5044558             -13.7269
        21        2.0000           -0.4895081             -13.3202
        22        2.0000           -0.4853318             -13.2066
        23        2.0000           -0.4835087             -13.1569
        24        2.0000           -0.4686543             -12.7527
        25        2.0000           -0.4638880             -12.6230
        26        2.0000           -0.4440706             -12.0838
        27        2.0000           -0.4149175             -11.2905
        28        2.0000           -0.3963947             -10.7864
        29        2.0000           -0.3911998             -10.6451 (HOMO)
        30                         -0.2856687              -7.7734 (LUMO)
        31                         -0.2347528              -6.3879
        32                         -0.1947716              -5.3000
        33                         -0.0945391              -2.5725
        34                         -0.0030157              -0.0821
        35                          0.0655154               1.7828
        36                          0.0918949               2.5006
        37                          0.1105844               3.0092
        38                          0.1340538               3.6478
        39                          0.1366906               3.7195
        40                          0.1510427               4.1101
       ...                                ...                  ...
        52                          0.6674209              18.1614
      -------------------------------------------------------------
                  HL-Gap            0.1055311 Eh            2.8716 eV

     #   Z          covCN         q      C6AA      α(0)
     1   6 C        3.644     0.035    20.315     6.479
     2   8 O        1.705    -0.284    18.714     5.841
     3   6 C        2.862     0.109    25.588     8.291
     4   6 C        2.847     0.138    24.987     8.192
     5   6 C        2.915    -0.055    29.378     8.888
     6   6 C        2.921    -0.036    28.888     8.814
     7   6 C        2.971    -0.025    28.614     8.774
     8   6 C        2.921    -0.056    29.388     8.890
     9   6 C        2.768     0.206    23.620     7.959
    10   8 O        0.856    -0.346    20.637     6.091
    11   8 O        1.660    -0.368    20.233     6.072
    12   1 H        0.924     0.047     2.353     2.399
    13   1 H        0.924     0.047     2.353     2.399
    14   1 H        0.925     0.063     2.160     2.299
    15   1 H        0.926     0.066     2.135     2.285
    16   1 H        0.926     0.051     2.313     2.378
    17   1 H        0.926     0.071     2.076     2.253
    18   1 H        0.922     0.011     2.875     2.652
    19   1 H        0.805     0.325     0.651     1.267

Wiberg/Mayer (AO) data.
largest (>0.10) Wiberg bond orders for each atom

     #   Z sym  total        # sym  WBO       # sym  WBO       # sym  WBO
 ---------------------------------------------------------------------------
     1   6 C    3.940 --    14 H    0.979     2 O    0.979    13 H    0.977
                            12 H    0.977
     2   8 O    2.213 --     3 C    1.042     1 C    0.979
     3   6 C    3.935 --     8 C    1.440     4 C    1.263     2 O    1.042
     4   6 C    3.946 --     5 C    1.378     3 C    1.263    11 O    1.109
     5   6 C    3.986 --     6 C    1.453     4 C    1.378    15 H    0.965
     6   6 C    3.991 --     5 C    1.453     7 C    1.374    16 H    0.967
     7   6 C    3.988 --     6 C    1.374     8 C    1.333     9 C    1.079
     8   6 C    3.988 --     3 C    1.440     7 C    1.333    17 H    0.960
     9   6 C    3.926 --    10 O    1.848     7 C    1.079    18 H    0.931
    10   8 O    2.063 --     9 C    1.848
    11   8 O    2.148 --     4 C    1.109    19 H    0.868
    12   1 H    0.998 --     1 C    0.977
    13   1 H    0.998 --     1 C    0.977
    14   1 H    0.996 --     1 C    0.979
    15   1 H    0.995 --     5 C    0.965
    16   1 H    0.997 --     6 C    0.967
    17   1 H    0.995 --     8 C    0.960
    18   1 H    0.999 --     9 C    0.931
    19   1 H    0.894 --    11 O    0.868
 ---------------------------------------------------------------------------

molecular dipole:
                 x           y           z       tot (Debye)
 q only:       -0.921       0.604      -0.111
   full:       -0.977       0.503      -0.133       2.814

           -------------------------------------------------
          | TOTAL ENERGY              -33.382190212340 Eh   |
          | GRADIENT NORM               0.000407099973 Eh/α |
          | HOMO-LUMO GAP               2.871648333793 eV   |
           -------------------------------------------------

 * finished run on 2024/09/16 at 17:15:30.496
