   * xtb version 6.6.0 (conda-forge) compiled by 'runner@Mac-1676020848589.local' on 2023-02-10
          program call               : xtb myosmine.xyz --opt --gfn2

   ID    Z sym.   atoms
    1    6 C      1-3, 5-7, 9-11
    2    7 N      4, 8
    3    1 H      12-21

          :  Hamiltonian                  GFN2-xTB          :
 * total energy  :   -30.1870230 Eh     change       -0.2326992E-09 Eh
 * total energy  :   -30.1964197 Eh     change       -0.9396662E-02 Eh
 * total energy  :   -30.1974155 Eh     change       -0.9958595E-03 Eh
 * total energy  :   -30.1974824 Eh     change       -0.6687052E-04 Eh
 * total energy  :   -30.1975117 Eh     change       -0.2932339E-04 Eh
 * total energy  :   -30.1975171 Eh     change       -0.5372152E-05 Eh
 * total energy  :   -30.1975186 Eh     change       -0.1465862E-05 Eh
   *** GEOMETRY OPTIMIZATION CONVERGED AFTER 7 ITERATIONS ***

 final structure:
================
21
 xtb: 6.6.0 (conda-forge)
C           -2.82152379915594        0.42296608165017       -0.41570042599101
C           -1.37346548767136        0.89270712706316       -0.60802422692877
C           -0.58278243010989       -0.19950602337267        0.08358422687351
N           -1.27965154408640       -1.12990381845709        0.59217257953654
C           -2.67909684525811       -0.90277239631810        0.37575004273519
C            0.87094698670629       -0.19008906695991        0.16349117071806
C            1.54855919024406       -1.22718578320696        0.81587514564313
N            2.85879041570154       -1.28791059805280        0.92873302252457
C            3.58028560817623       -0.31402669205823        0.39591637120088
C            3.02287720922324        0.76464077108984       -0.27392275141263
C            1.64522437616181        0.82809924393694       -0.39237250328482
H           -3.31702683695318        0.25305311869736       -1.36990435418948
H           -3.40619274185056        1.14881796754468        0.14661599997987
H           -1.09222993880198        0.96027408341448       -1.66018259611930
H           -1.18168349956420        1.85895624968386       -0.13868616398533
H           -3.08578531573310       -1.76162501594189       -0.16498363486639
H           -3.17481722926985       -0.86699729201642        1.34960737078500
H            0.98316690277937       -2.03435023243574        1.25933492977036
H            4.65187511672603       -0.40757195797216        0.51419402018339
H            3.65071950474097        1.53628520486987       -0.69275576292047
H            1.18171035799503        1.65623902884161       -0.90874246025227

          :  Hamiltonian                  GFN2-xTB          :
         :: total energy             -30.197518568716 Eh    ::
         :: gradient norm              0.000269477888 Eh/a0 ::
         :: HOMO-LUMO gap              2.515262142475 eV    ::
         :: SCC energy               -30.678899129679 Eh    ::
         :: -> dispersion             -0.017786766910 Eh    ::
         :: repulsion energy           0.481379173109 Eh    ::

    * Orbital Energies and Occupations

         #    Occupation            Energy/Eh            Energy/eV
      -------------------------------------------------------------
         1        2.0000           -0.6674560             -18.1624
       ...           ...                  ...                  ...
        16        2.0000           -0.4994930             -13.5919
        17        2.0000           -0.4910646             -13.3625
        18        2.0000           -0.4802332             -13.0678
        19        2.0000           -0.4753863             -12.9359
        20        2.0000           -0.4744797             -12.9113
        21        2.0000           -0.4643033             -12.6343
        22        2.0000           -0.4555312             -12.3956
        23        2.0000           -0.4407878             -11.9944
        24        2.0000           -0.4387475             -11.9389
        25        2.0000           -0.4280515             -11.6479
        26        2.0000           -0.4003087             -10.8930
        27        2.0000           -0.3815155             -10.3816
        28        2.0000           -0.3669440              -9.9851 (HOMO)
        29                         -0.2745098              -7.4698 (LUMO)
        30                         -0.2481180              -6.7516
        31                         -0.1943778              -5.2893
        32                         -0.0984224              -2.6782
        33                          0.0421094               1.1459
        34                          0.0674221               1.8346
        35                          0.0990978               2.6966
        36                          0.1091374               2.9698
        37                          0.1122256               3.0538
        38                          0.1237210               3.3666
        39                          0.1419570               3.8628
       ...                                ...                  ...
        54                          0.6418187              17.4648
      -------------------------------------------------------------
                  HL-Gap            0.0924342 Eh            2.5153 eV

     #   Z          covCN         q      C6AA      α(0)
     1   6 C        3.824    -0.063    21.697     6.628
     2   6 C        3.823    -0.066    21.743     6.636
     3   6 C        3.006     0.102    25.735     8.322
     4   7 N        1.844    -0.248    27.305     7.744
     5   6 C        3.849     0.016    20.275     6.405
     6   6 C        2.972    -0.005    28.141     8.702
     7   6 C        2.919     0.063    26.592     8.456
     8   7 N        1.835    -0.211    26.422     7.617
     9   6 C        2.914     0.060    26.659     8.467
    10   6 C        2.912    -0.039    28.971     8.826
    11   6 C        2.931    -0.016    28.412     8.742
    12   1 H        0.925     0.031     2.573     2.508
    13   1 H        0.925     0.031     2.573     2.508
    14   1 H        0.924     0.038     2.469     2.457
    15   1 H        0.924     0.038     2.469     2.457
    16   1 H        0.924     0.044     2.391     2.418
    17   1 H        0.924     0.044     2.391     2.418
    18   1 H        0.926     0.064     2.154     2.295
    19   1 H        0.925     0.042     2.418     2.432
    20   1 H        0.926     0.037     2.486     2.466
    21   1 H        0.926     0.036     2.498     2.472

Wiberg/Mayer (AO) data.
largest (>0.10) Wiberg bond orders for each atom

     #   Z sym  total        # sym  WBO       # sym  WBO       # sym  WBO
 ---------------------------------------------------------------------------
     1   6 C    3.997 --     2 C    1.009    13 H    0.985    12 H    0.985
                             5 C    0.984
     2   6 C    3.998 --     1 C    1.009     3 C    0.986    14 H    0.965
                            15 H    0.965
     3   6 C    3.971 --     4 N    1.803     6 C    1.071     2 C    0.986
     4   7 N    3.066 --     3 C    1.803     5 C    1.038
     5   6 C    3.987 --     4 N    1.038     1 C    0.984    16 H    0.959
                            17 H    0.959
     6   6 C    3.990 --    11 C    1.388     7 C    1.351     3 C    1.071
                             9 C    0.106
     7   6 C    3.976 --     8 N    1.468     6 C    1.351    18 H    0.960
                            10 C    0.110
     8   7 N    3.068 --     7 C    1.468     9 C    1.424
     9   6 C    3.978 --     8 N    1.424    10 C    1.423    19 H    0.964
                             6 C    0.106
    10   6 C    3.992 --    11 C    1.452     9 C    1.423    20 H    0.970
                             7 C    0.110
    11   6 C    3.987 --    10 C    1.452     6 C    1.388    21 H    0.967
    12   1 H    0.999 --     1 C    0.985
    13   1 H    0.999 --     1 C    0.985
    14   1 H    0.999 --     2 C    0.965
    15   1 H    0.999 --     2 C    0.965
    16   1 H    0.994 --     5 C    0.959
    17   1 H    0.994 --     5 C    0.959
    18   1 H    0.996 --     7 C    0.960
    19   1 H    0.998 --     9 C    0.964
    20   1 H    0.998 --    10 C    0.970
    21   1 H    0.999 --    11 C    0.967
 ---------------------------------------------------------------------------

molecular dipole:
                 x           y           z       tot (Debye)
 q only:       -0.172       0.563      -0.343
   full:       -0.457       1.212      -0.742       3.794

           -------------------------------------------------
          | TOTAL ENERGY              -30.197518568716 Eh   |
          | GRADIENT NORM               0.000269477888 Eh/α |
          | HOMO-LUMO GAP               2.515262142475 eV   |
           -------------------------------------------------

 * finished run on 2024/09/20 at 14:42:15.334
