   * xtb version 6.6.0 (conda-forge) compiled by 'runner@Mac-1676020848589.local' on 2023-02-10
          program call               : xtb acetaminophen.xyz --opt --gfn2

   ID    Z sym.   atoms
    1    6 C      1, 2, 5-10
    2    8 O      3, 11
    3    7 N      4
    4    1 H      12-20

          :  Hamiltonian                  GFN2-xTB          :
 * total energy  :   -32.7592592 Eh     change       -0.1563834E-09 Eh
 * total energy  :   -32.7753201 Eh     change       -0.1606093E-01 Eh
 * total energy  :   -32.7791916 Eh     change       -0.3871480E-02 Eh
 * total energy  :   -32.7799931 Eh     change       -0.8015566E-03 Eh
 * total energy  :   -32.7804468 Eh     change       -0.4536093E-03 Eh
 * total energy  :   -32.7808019 Eh     change       -0.3551900E-03 Eh
 * total energy  :   -32.7811660 Eh     change       -0.3640974E-03 Eh
 * total energy  :   -32.7815494 Eh     change       -0.3833819E-03 Eh
 * total energy  :   -32.7818885 Eh     change       -0.3390604E-03 Eh
 * total energy  :   -32.7821196 Eh     change       -0.2310911E-03 Eh
 * total energy  :   -32.7827830 Eh     change       -0.8917115E-04 Eh
 * total energy  :   -32.7828333 Eh     change       -0.5030840E-04 Eh
 * total energy  :   -32.7828687 Eh     change       -0.3540535E-04 Eh
 * total energy  :   -32.7829088 Eh     change       -0.4009232E-04 Eh
 * total energy  :   -32.7829273 Eh     change       -0.1856119E-04 Eh
 * total energy  :   -32.7829535 Eh     change       -0.2617695E-04 Eh
 * total energy  :   -32.7829655 Eh     change       -0.1196325E-04 Eh
 * total energy  :   -32.7829726 Eh     change       -0.7143427E-05 Eh
 * total energy  :   -32.7829771 Eh     change       -0.4444098E-05 Eh
   *** GEOMETRY OPTIMIZATION CONVERGED AFTER 23 ITERATIONS ***

 final structure:
================
20
 xtb: 6.6.0 (conda-forge)
C            3.67147501248143       -0.45181925032504       -0.23809915620531
C            2.27597727916139       -0.74172046597925        0.28338295879050
O            2.04560841059731       -1.58389968693026        1.11967553825040
N            1.33348808537751        0.04873112416720       -0.30668889507679
C           -0.05007372199509        0.08935053488468       -0.08950164759687
C           -0.70486259558192       -0.76502090806046        0.79431333125118
C           -2.07029292876579       -0.67161145021876        0.96567614536638
C           -2.81031248098587        0.27288141191469        0.26141766438278
C           -2.15991644358376        1.12413169389108       -0.62284487019435
C           -0.79232600292775        1.03135220297133       -0.79558223137848
O           -4.15574294146716        0.32860064402499        0.46583509882104
H            4.38969478507669       -1.03906842065175        0.32644642156247
H            3.73976793809663       -0.72489027451066       -1.28931262800029
H            3.90776487315390        0.60499327692408       -0.13215255507016
H            1.66480434250117        0.71550888798642       -0.99039430003191
H           -0.13728995398796       -1.49643468990224        1.34368309957548
H           -2.58537638784265       -1.32841874148069        1.64765772489101
H           -2.72423643773773        1.86227698334701       -1.17763895831587
H           -0.29750131573438        1.69996078575420       -1.48652717511787
H           -4.54044951583609        1.02509634219345       -0.07924556590377

          :  Hamiltonian                  GFN2-xTB          :
         :: total energy             -32.782977059702 Eh    ::
         :: gradient norm              0.000636978810 Eh/a0 ::
         :: HOMO-LUMO gap              3.754908088583 eV    ::
         :: SCC energy               -33.246604257101 Eh    ::
         :: -> dispersion             -0.016032570910 Eh    ::
         :: repulsion energy           0.463673824301 Eh    ::

    * Orbital Energies and Occupations

         #    Occupation            Energy/Eh            Energy/eV
      -------------------------------------------------------------
         1        2.0000           -0.7105858             -19.3360
       ...           ...                  ...                  ...
        17        2.0000           -0.4986869             -13.5700
        18        2.0000           -0.4926106             -13.4046
        19        2.0000           -0.4919985             -13.3880
        20        2.0000           -0.4847468             -13.1906
        21        2.0000           -0.4801058             -13.0643
        22        2.0000           -0.4747485             -12.9186
        23        2.0000           -0.4742755             -12.9057
        24        2.0000           -0.4603002             -12.5254
        25        2.0000           -0.4324538             -11.7677
        26        2.0000           -0.4282507             -11.6533
        27        2.0000           -0.4087489             -11.1226
        28        2.0000           -0.3935281             -10.7084
        29        2.0000           -0.3706400             -10.0856 (HOMO)
        30                         -0.2326496              -6.3307 (LUMO)
        31                         -0.2269132              -6.1746
        32                         -0.1862473              -5.0680
        33                         -0.0856253              -2.3300
        34                          0.0084674               0.2304
        35                          0.0730051               1.9866
        36                          0.0790073               2.1499
        37                          0.1259888               3.4283
        38                          0.1487845               4.0486
        39                          0.1529215               4.1612
        40                          0.1762382               4.7957
       ...                                ...                  ...
        53                          0.6773389              18.4313
      -------------------------------------------------------------
                  HL-Gap            0.1379903 Eh            3.7549 eV

     #   Z          covCN         q      C6AA      α(0)
     1   6 C        3.758    -0.145    23.360     6.891
     2   6 C        2.745     0.280    22.252     7.724
     3   8 O        0.858    -0.413    21.945     6.281
     4   7 N        2.697    -0.163    24.534     7.356
     5   6 C        2.904     0.065    26.552     8.449
     6   6 C        2.921    -0.047    29.168     8.857
     7   6 C        2.920    -0.051    29.279     8.873
     8   6 C        2.845     0.140    24.944     8.185
     9   6 C        2.918    -0.070    29.735     8.942
    10   6 C        2.926    -0.056    29.393     8.891
    11   8 O        1.659    -0.392    20.691     6.141
    12   1 H        0.925     0.073     2.054     2.241
    13   1 H        0.925     0.058     2.224     2.332
    14   1 H        0.925     0.053     2.279     2.361
    15   1 H        0.860     0.173     1.252     1.753
    16   1 H        0.926     0.083     1.952     2.185
    17   1 H        0.926     0.058     2.222     2.331
    18   1 H        0.925     0.029     2.605     2.524
    19   1 H        0.925     0.028     2.612     2.527
    20   1 H        0.805     0.298     0.726     1.339

Wiberg/Mayer (AO) data.
largest (>0.10) Wiberg bond orders for each atom

     #   Z sym  total        # sym  WBO       # sym  WBO       # sym  WBO
 ---------------------------------------------------------------------------
     1   6 C    3.993 --    12 H    0.983     2 C    0.977    14 H    0.973
                            13 H    0.969
     2   6 C    3.947 --     3 O    1.715     4 N    1.197     1 C    0.977
     3   8 O    2.032 --     2 C    1.715     4 N    0.168
     4   7 N    3.487 --     2 C    1.197     5 C    1.067    15 H    0.937
                             3 O    0.168
     5   6 C    3.961 --    10 C    1.372     6 C    1.362     4 N    1.067
     6   6 C    3.986 --     7 C    1.468     5 C    1.362    16 H    0.959
                             9 C    0.102
     7   6 C    3.988 --     6 C    1.468     8 C    1.359    17 H    0.967
                            10 C    0.105
     8   6 C    3.938 --     9 C    1.371     7 C    1.359    11 O    1.068
     9   6 C    3.987 --    10 C    1.451     8 C    1.371    18 H    0.967
                             6 C    0.102
    10   6 C    3.989 --     9 C    1.451     5 C    1.372    19 H    0.967
                             7 C    0.105
    11   8 O    2.111 --     8 C    1.068    20 H    0.890
    12   1 H    0.994 --     1 C    0.983
    13   1 H    0.996 --     1 C    0.969
    14   1 H    0.997 --     1 C    0.973
    15   1 H    0.969 --     4 N    0.937
    16   1 H    0.993 --     6 C    0.959
    17   1 H    0.996 --     7 C    0.967
    18   1 H    0.999 --     9 C    0.967
    19   1 H    0.999 --    10 C    0.967
    20   1 H    0.911 --    11 O    0.890
 ---------------------------------------------------------------------------

molecular dipole:
                 x           y           z       tot (Debye)
 q only:        0.074       1.131      -1.080
   full:        0.176       1.561      -1.493       5.508

           -------------------------------------------------
          | TOTAL ENERGY              -32.782977059702 Eh   |
          | GRADIENT NORM               0.000636978810 Eh/α |
          | HOMO-LUMO GAP               3.754908088583 eV   |
           -------------------------------------------------

 * finished run on 2024/09/24 at 21:07:34.718
