   * xtb version 6.6.0 (conda-forge) compiled by 'runner@Mac-1676020848589.local' on 2023-02-10
          program call               : xtb water.xyz --opt --gfn2

   ID    Z sym.   atoms
    1    8 O      1
    2    1 H      2, 3

          :  Hamiltonian                  GFN2-xTB          :
 * total energy  :    -5.0689805 Eh     change        0.1776357E-14 Eh
 * total energy  :    -5.0703649 Eh     change       -0.1384456E-02 Eh
 * total energy  :    -5.0705334 Eh     change       -0.1685302E-03 Eh
 * total energy  :    -5.0705430 Eh     change       -0.9592613E-05 Eh
 * total energy  :    -5.0705441 Eh     change       -0.1056727E-05 Eh
   *** GEOMETRY OPTIMIZATION CONVERGED AFTER 5 ITERATIONS ***

 final structure:
================
3
 xtb: 6.6.0 (conda-forge)
O            0.01580556184926        0.37857349864087        0.00000000000000
H            0.76430206332065       -0.22147828506899        0.00000000000000
H           -0.78010762516991       -0.15699521357188        0.00000000000000

          :  Hamiltonian                  GFN2-xTB          :
         :: total energy              -5.070544094159 Eh    ::
         :: gradient norm              0.000338082001 Eh/a0 ::
         :: HOMO-LUMO gap             14.376578943543 eV    ::
         :: SCC energy                -5.104871475630 Eh    ::
         :: -> dispersion             -0.000141078778 Eh    ::
         :: repulsion energy           0.034327381446 Eh    ::

    * Orbital Energies and Occupations

         #    Occupation            Energy/Eh            Energy/eV
      -------------------------------------------------------------
         1        2.0000           -0.6800052             -18.5039
         2        2.0000           -0.5683764             -15.4663
         3        2.0000           -0.5106974             -13.8968
         4        2.0000           -0.4463313             -12.1453 (HOMO)
         5                          0.0819983               2.2313 (LUMO)
         6                          0.2516533               6.8478
      -------------------------------------------------------------
                  HL-Gap            0.5283296 Eh           14.3766 eV

     #   Z          covCN         q      C6AA      α(0)
     1   8 O        1.611    -0.565    24.359     6.661
     2   1 H        0.805     0.282     0.776     1.384
     3   1 H        0.805     0.282     0.776     1.384

Wiberg/Mayer (AO) data.
largest (>0.10) Wiberg bond orders for each atom

     #   Z sym  total        # sym  WBO       # sym  WBO       # sym  WBO
 ---------------------------------------------------------------------------
     1   8 O    1.840 --     3 H    0.920     2 H    0.920
     2   1 H    0.920 --     1 O    0.920
     3   1 H    0.920 --     1 O    0.920
 ---------------------------------------------------------------------------

molecular dipole:
                 x           y           z       tot (Debye)
 q only:       -0.025      -0.606       0.000
   full:       -0.036      -0.871      -0.000       2.215

           -------------------------------------------------
          | TOTAL ENERGY               -5.070544094159 Eh   |
          | GRADIENT NORM               0.000338082001 Eh/α |
          | HOMO-LUMO GAP              14.376578943543 eV   |
           -------------------------------------------------

 * finished run on 2024/09/10 at 11:30:21.368
