   * xtb version 6.6.0 (conda-forge) compiled by 'runner@Mac-1676020848589.local' on 2023-02-10
          program call               : xtb cotinine.xyz --opt --gfn2

   ID    Z sym.   atoms
    1    6 C      1, 3-6, 8, 9, 11-13
    2    7 N      2, 10
    3    8 O      7
    4    1 H      14-25

          :  Hamiltonian                  GFN2-xTB          :
 * total energy  :   -37.4453066 Eh     change       -0.1944116E-09 Eh
 * total energy  :   -37.4617644 Eh     change       -0.1645779E-01 Eh
 * total energy  :   -37.4641335 Eh     change       -0.2369066E-02 Eh
 * total energy  :   -37.4643004 Eh     change       -0.1668985E-03 Eh
 * total energy  :   -37.4643719 Eh     change       -0.7150902E-04 Eh
 * total energy  :   -37.4644008 Eh     change       -0.2890966E-04 Eh
 * total energy  :   -37.4644345 Eh     change       -0.3368931E-04 Eh
 * total energy  :   -37.4644680 Eh     change       -0.3350248E-04 Eh
 * total energy  :   -37.4645057 Eh     change       -0.3773508E-04 Eh
 * total energy  :   -37.4645371 Eh     change       -0.3135832E-04 Eh
 * total energy  :   -37.4673801 Eh     change       -0.5208733E-04 Eh
 * total energy  :   -37.4674084 Eh     change       -0.2829893E-04 Eh
 * total energy  :   -37.4674254 Eh     change       -0.1698431E-04 Eh
 * total energy  :   -37.4674471 Eh     change       -0.2166141E-04 Eh
 * total energy  :   -37.4674652 Eh     change       -0.1810351E-04 Eh
 * total energy  :   -37.4674839 Eh     change       -0.1872548E-04 Eh
 * total energy  :   -37.4674950 Eh     change       -0.1113658E-04 Eh
 * total energy  :   -37.4675002 Eh     change       -0.5232215E-05 Eh
 * total energy  :   -37.4675011 Eh     change       -0.8148814E-06 Eh
   *** GEOMETRY OPTIMIZATION CONVERGED AFTER 40 ITERATIONS ***

 final structure:
================
25
 xtb: 6.6.0 (conda-forge)
C           -1.65601798934262        1.94238020720224        0.40092276031007
N           -1.54294889578459        0.52113600817579        0.22576681756765
C           -0.47402993527441       -0.22953720604479        0.84069605994544
C           -0.90948804552409       -1.69612850215157        0.62885916153886
C           -1.84789949760774       -1.63652724787717       -0.57367687906773
C           -2.33089892307129       -0.19368378084988       -0.60808443124563
O           -3.24661281780216        0.25350752667988       -1.25921623908381
C            0.86872541984069        0.04893127663811        0.20661279143029
C            0.99328493315744        0.35386924390488       -1.14610375396828
N            2.15035026172444        0.57193185465622       -1.74245098655531
C            3.25446129962712        0.49644727237126       -1.02087074731553
C            3.25418671407543        0.20322064051742        0.33482348134396
C            2.03756236017527       -0.02285196015327        0.95544340611833
H           -1.81509267299980        2.18600687807542        1.45437408993995
H           -2.51269419566980        2.27619118259445       -0.18165751695917
H           -0.75660145513879        2.45238780851840        0.04860204147549
H           -0.41585647500199        0.01725106065654        1.90930851966564
H           -0.05271022638504       -2.34725459790984        0.46270006270417
H           -1.44586188462108       -2.04980061073691        1.50947888430580
H           -1.32739736769238       -1.84437437928767       -1.51006394670428
H           -2.69092321726527       -2.32055420909815       -0.49926044420651
H            0.12044262786739        0.43387192276879       -1.78127897174031
H            4.17629959999228        0.68145364864264       -1.55584465249671
H            4.17814519021599        0.15570132863665        0.88993456233013
H            1.99167519250501       -0.25347536592923        2.01118593066749

          :  Hamiltonian                  GFN2-xTB          :
         :: total energy             -37.467501064984 Eh    ::
         :: gradient norm              0.000802217252 Eh/a0 ::
         :: HOMO-LUMO gap              3.148782493505 eV    ::
         :: SCC energy               -38.007383700312 Eh    ::
         :: -> dispersion             -0.023774905004 Eh    ::
         :: repulsion energy           0.539668440273 Eh    ::

    * Orbital Energies and Occupations

         #    Occupation            Energy/Eh            Energy/eV
      -------------------------------------------------------------
         1        2.0000           -0.6960391             -18.9402
       ...           ...                  ...                  ...
        22        2.0000           -0.5004574             -13.6181
        23        2.0000           -0.4892633             -13.3135
        24        2.0000           -0.4840100             -13.1706
        25        2.0000           -0.4827149             -13.1353
        26        2.0000           -0.4782204             -13.0130
        27        2.0000           -0.4738189             -12.8933
        28        2.0000           -0.4567255             -12.4281
        29        2.0000           -0.4483337             -12.1998
        30        2.0000           -0.4439430             -12.0803
        31        2.0000           -0.4229159             -11.5081
        32        2.0000           -0.3952589             -10.7555
        33        2.0000           -0.3918089             -10.6617
        34        2.0000           -0.3749935             -10.2041 (HOMO)
        35                         -0.2592779              -7.0553 (LUMO)
        36                         -0.2482726              -6.7558
        37                         -0.2014932              -5.4829
        38                         -0.1245841              -3.3901
        39                         -0.0035831              -0.0975
        40                          0.0393999               1.0721
        41                          0.0677400               1.8433
        42                          0.0754230               2.0524
        43                          0.0904504               2.4613
        44                          0.1082631               2.9460
        45                          0.1208948               3.2897
       ...                                ...                  ...
        64                          0.6714142              18.2701
      -------------------------------------------------------------
                  HL-Gap            0.1157156 Eh            3.1488 eV

     #   Z          covCN         q      C6AA      α(0)
     1   6 C        3.692    -0.043    21.528     6.639
     2   7 N        2.763    -0.101    23.220     7.157
     3   6 C        3.830     0.034    19.985     6.361
     4   6 C        3.829    -0.063    21.680     6.625
     5   6 C        3.831    -0.091    22.206     6.705
     6   6 C        2.792     0.271    22.430     7.758
     7   8 O        0.857    -0.436    22.410     6.347
     8   6 C        2.967    -0.008    28.221     8.714
     9   6 C        2.916     0.056    26.749     8.481
    10   7 N        1.836    -0.215    26.515     7.631
    11   6 C        2.913     0.058    26.701     8.473
    12   6 C        2.913    -0.038    28.949     8.823
    13   6 C        2.933    -0.020    28.507     8.756
    14   1 H        0.924     0.046     2.373     2.409
    15   1 H        0.925     0.084     1.943     2.180
    16   1 H        0.924     0.045     2.379     2.412
    17   1 H        0.923     0.041     2.436     2.441
    18   1 H        0.925     0.046     2.376     2.411
    19   1 H        0.925     0.047     2.352     2.398
    20   1 H        0.924     0.062     2.179     2.308
    21   1 H        0.925     0.064     2.156     2.296
    22   1 H        0.925     0.047     2.363     2.404
    23   1 H        0.925     0.043     2.409     2.427
    24   1 H        0.926     0.039     2.457     2.451
    25   1 H        0.925     0.033     2.542     2.493

Wiberg/Mayer (AO) data.
largest (>0.10) Wiberg bond orders for each atom

     #   Z sym  total        # sym  WBO       # sym  WBO       # sym  WBO
 ---------------------------------------------------------------------------
     1   6 C    3.969 --     2 N    1.002    14 H    0.977    16 H    0.976
                            15 H    0.975
     2   7 N    3.489 --     6 C    1.232     1 C    1.002     3 C    0.983
                             7 O    0.195
     3   6 C    3.976 --     8 C    0.987     2 N    0.983     4 C    0.969
                            17 H    0.958
     4   6 C    3.995 --     5 C    1.009    19 H    0.980    18 H    0.979
                             3 C    0.969
     5   6 C    3.995 --     4 C    1.009    21 H    0.968    20 H    0.959
                             6 C    0.958
     6   6 C    3.952 --     7 O    1.691     2 N    1.232     5 C    0.958
     7   8 O    2.014 --     6 C    1.691     2 N    0.195
     8   6 C    3.987 --    13 C    1.414     9 C    1.396     3 C    0.987
                            11 C    0.113
     9   6 C    3.982 --    10 N    1.446     8 C    1.396    22 H    0.961
                            12 C    0.115
    10   7 N    3.067 --     9 C    1.446    11 C    1.440    13 C    0.102
    11   6 C    3.981 --    10 N    1.440    12 C    1.422    23 H    0.964
                             8 C    0.113
    12   6 C    3.991 --    13 C    1.448    11 C    1.422    24 H    0.970
                             9 C    0.115
    13   6 C    3.991 --    12 C    1.448     8 C    1.414    25 H    0.968
                            10 N    0.102
    14   1 H    0.998 --     1 C    0.977
    15   1 H    0.993 --     1 C    0.975
    16   1 H    0.998 --     1 C    0.976
    17   1 H    0.998 --     3 C    0.958
    18   1 H    0.998 --     4 C    0.979
    19   1 H    0.997 --     4 C    0.980
    20   1 H    0.996 --     5 C    0.959
    21   1 H    0.995 --     5 C    0.968
    22   1 H    0.998 --     9 C    0.961
    23   1 H    0.997 --    11 C    0.964
    24   1 H    0.998 --    12 C    0.970
    25   1 H    0.999 --    13 C    0.968
 ---------------------------------------------------------------------------

molecular dipole:
                 x           y           z       tot (Debye)
 q only:        1.089      -0.284       1.236
   full:        1.278      -0.441       1.760       5.641

           -------------------------------------------------
          | TOTAL ENERGY              -37.467501064984 Eh   |
          | GRADIENT NORM               0.000802217252 Eh/α |
          | HOMO-LUMO GAP               3.148782493505 eV   |
           -------------------------------------------------

 * finished run on 2024/09/13 at 17:46:28.597
