   * xtb version 6.6.0 (conda-forge) compiled by 'runner@Mac-1676020848589.local' on 2023-02-10
          program call               : xtb diclofenac.xyz --opt --gfn2

   ID    Z sym.   atoms
    1    6 C      1-8, 12-17
    2    8 O      9, 10
    3    7 N      11
    4   17 Cl     18, 19
    5    1 H      20-30

          :  Hamiltonian                  GFN2-xTB          :
 * total energy  :   -55.7395934 Eh     change       -0.3208775E-08 Eh
 * total energy  :   -55.7594266 Eh     change       -0.1983321E-01 Eh
 * total energy  :   -55.7644044 Eh     change       -0.4977729E-02 Eh
 * total energy  :   -55.7654339 Eh     change       -0.1029554E-02 Eh
 * total energy  :   -55.7663620 Eh     change       -0.9281204E-03 Eh
 * total energy  :   -55.7668953 Eh     change       -0.5332633E-03 Eh
 * total energy  :   -55.7675199 Eh     change       -0.6245930E-03 Eh
 * total energy  :   -55.7680006 Eh     change       -0.4807345E-03 Eh
 * total energy  :   -55.7683226 Eh     change       -0.3219570E-03 Eh
 * total energy  :   -55.7685848 Eh     change       -0.2622238E-03 Eh
 * total energy  :   -55.7693775 Eh     change       -0.1912211E-03 Eh
 * total energy  :   -55.7695401 Eh     change       -0.1625750E-03 Eh
 * total energy  :   -55.7695645 Eh     change       -0.2439660E-04 Eh
 * total energy  :   -55.7695927 Eh     change       -0.2820782E-04 Eh
 * total energy  :   -55.7696141 Eh     change       -0.2135240E-04 Eh
 * total energy  :   -55.7696264 Eh     change       -0.1233237E-04 Eh
 * total energy  :   -55.7696336 Eh     change       -0.7199023E-05 Eh
 * total energy  :   -55.7696368 Eh     change       -0.3159370E-05 Eh
 * total energy  :   -55.7696400 Eh     change       -0.3194548E-05 Eh
   *** GEOMETRY OPTIMIZATION CONVERGED AFTER 22 ITERATIONS ***

 final structure:
================
30
 xtb: 6.6.0 (conda-forge)
C           -2.59611733584063       -2.50899988776589       -0.17346290337333
C           -1.28361164297090       -2.77146910199461       -0.52799770808684
C           -0.34057309913777       -1.76375288677256       -0.48960199454423
C           -0.69210360096965       -0.47935959685920       -0.07838647267550
C           -2.01817254146162       -0.21370323147400        0.28420800226059
C           -2.95607546936314       -1.23261916194326        0.22039327205535
C           -2.43489132347969        1.17101874551091        0.72299464844075
C           -2.80789214938909        1.95102334342930       -0.51450338334688
O           -3.91040894663013        2.05665743366737       -0.97249521574232
O           -1.73041318147856        2.50501711423168       -1.10095758887012
N            0.24368753936344        0.55514117884526       -0.04884162951709
C            1.60599311114927        0.40561470315977        0.03795018272346
C            2.45882925351132        1.22545358444596       -0.71904658683980
C            3.83396378184196        1.14875587833669       -0.62908898304725
C            4.41068949735325        0.22952894939689        0.23094482566895
C            3.60562709546674       -0.57435759823003        1.01818979796662
C            2.22823563893341       -0.47380860536326        0.93807088529049
Cl           1.26732029779517       -1.41829169831412        2.02689964978184
Cl           1.74766919539054        2.37885431800140       -1.80453168635929
H           -3.33697224900399       -3.29277430538766       -0.20698196533311
H           -0.99375704518583       -3.76125010641568       -0.84725339008973
H            0.67729602983583       -1.95927718964441       -0.79367210396791
H           -3.97979834390417       -1.01987633075785        0.49032691889217
H           -3.31095924100781        1.10709693597917        1.36715553285895
H           -1.61660211336246        1.66853099003229        1.24333110398720
H           -1.98213240480929        2.96681286835188       -1.91625807565845
H           -0.05877603165101        1.42192753560460       -0.47922813788620
H            4.44591308991369        1.79781280921312       -1.23503543422402
H            5.48354447692586        0.15215249016999        0.29784956422687
H            4.04058771216568       -1.27155917745431        1.71632887540976

          :  Hamiltonian                  GFN2-xTB          :
         :: total energy             -55.769639966219 Eh    ::
         :: gradient norm              0.000398167584 Eh/a0 ::
         :: HOMO-LUMO gap              3.202331646370 eV    ::
         :: SCC energy               -56.501700558534 Eh    ::
         :: -> dispersion             -0.037868270395 Eh    ::
         :: repulsion energy           0.731686185184 Eh    ::

    * Orbital Energies and Occupations

         #    Occupation            Energy/Eh            Energy/eV
      -------------------------------------------------------------
         1        2.0000           -1.0657498             -29.0005
       ...           ...                  ...                  ...
        37        2.0000           -0.4694329             -12.7739
        38        2.0000           -0.4624316             -12.5834
        39        2.0000           -0.4526468             -12.3171
        40        2.0000           -0.4436217             -12.0716
        41        2.0000           -0.4408588             -11.9964
        42        2.0000           -0.4363912             -11.8748
        43        2.0000           -0.4318163             -11.7503
        44        2.0000           -0.4274178             -11.6306
        45        2.0000           -0.4244256             -11.5492
        46        2.0000           -0.4082690             -11.1096
        47        2.0000           -0.4043385             -11.0026
        48        2.0000           -0.4015292             -10.9262
        49        2.0000           -0.3682068             -10.0194 (HOMO)
        50                         -0.2505233              -6.8171 (LUMO)
        51                         -0.2478638              -6.7447
        52                         -0.2428595              -6.6085
        53                         -0.2231470              -6.0721
        54                         -0.2141302              -5.8268
        55                         -0.1617203              -4.4006
        56                         -0.1327240              -3.6116
        57                         -0.1213180              -3.3012
        58                         -0.0958194              -2.6074
        59                         -0.0021033              -0.0572
        60                          0.0033373               0.0908
       ...                                ...                  ...
        97                          0.6603482              17.9690
      -------------------------------------------------------------
                  HL-Gap            0.1176835 Eh            3.2023 eV

     #   Z          covCN         q      C6AA      α(0)
     1   6 C        2.918    -0.037    28.922     8.819
     2   6 C        2.919    -0.030    28.741     8.791
     3   6 C        2.922    -0.044    29.091     8.845
     4   6 C        2.910     0.068    26.470     8.436
     5   6 C        2.980    -0.003    28.099     8.695
     6   6 C        2.924    -0.036    28.886     8.814
     7   6 C        3.809    -0.095    22.310     6.724
     8   6 C        2.695     0.364    20.827     7.469
     9   8 O        0.856    -0.399    21.669     6.241
    10   8 O        1.659    -0.385    20.551     6.120
    11   7 N        2.697    -0.152    24.284     7.319
    12   6 C        2.962     0.059    26.681     8.473
    13   6 C        2.896     0.066    26.518     8.443
    14   6 C        2.953    -0.044    29.080     8.845
    15   6 C        2.923    -0.040    28.993     8.830
    16   6 C        2.958    -0.045    29.107     8.849
    17   6 C        2.891     0.076    26.295     8.407
    18  17 Cl       0.966    -0.164   104.285    15.623
    19  17 Cl       0.966    -0.177   104.715    15.655
    20   1 H        0.926     0.037     2.490     2.468
    21   1 H        0.926     0.037     2.494     2.469
    22   1 H        0.926     0.036     2.504     2.474
    23   1 H        0.926     0.043     2.404     2.425
    24   1 H        0.925     0.075     2.027     2.227
    25   1 H        0.925     0.074     2.040     2.234
    26   1 H        0.804     0.329     0.640     1.257
    27   1 H        0.860     0.202     1.097     1.641
    28   1 H        0.926     0.062     2.177     2.307
    29   1 H        0.926     0.056     2.250     2.345
    30   1 H        0.926     0.065     2.138     2.286

Wiberg/Mayer (AO) data.
largest (>0.10) Wiberg bond orders for each atom

     #   Z sym  total        # sym  WBO       # sym  WBO       # sym  WBO
 ---------------------------------------------------------------------------
     1   6 C    3.982 --     6 C    1.437     2 C    1.427    20 H    0.971
     2   6 C    3.989 --     3 C    1.453     1 C    1.427    21 H    0.971
                             5 C    0.101
     3   6 C    3.990 --     2 C    1.453     4 C    1.368    22 H    0.967
                             6 C    0.104
     4   6 C    3.968 --     3 C    1.368     5 C    1.340    11 N    1.080
     5   6 C    3.978 --     6 C    1.424     4 C    1.340     7 C    0.978
                             2 C    0.101
     6   6 C    3.991 --     1 C    1.437     5 C    1.424    23 H    0.968
                             3 C    0.104
     7   6 C    3.991 --     5 C    0.978    24 H    0.965     8 C    0.964
                            25 H    0.960
     8   6 C    3.910 --     9 O    1.779    10 O    1.111     7 C    0.964
     9   8 O    2.053 --     8 C    1.779    10 O    0.168
    10   8 O    2.193 --     8 C    1.111    26 H    0.865     9 O    0.168
    11   7 N    3.424 --    12 C    1.155     4 C    1.080    27 H    0.899
    12   6 C    3.979 --    17 C    1.310    13 C    1.306    11 N    1.155
    13   6 C    3.903 --    14 C    1.429    12 C    1.306    19 Cl   0.962
    14   6 C    3.987 --    13 C    1.429    15 C    1.418    28 H    0.966
    15   6 C    3.982 --    16 C    1.428    14 C    1.418    29 H    0.968
    16   6 C    3.987 --    15 C    1.428    17 C    1.419    30 H    0.966
    17   6 C    3.910 --    16 C    1.419    12 C    1.310    18 Cl   0.976
    18  17 Cl   1.119 --    17 C    0.976
    19  17 Cl   1.109 --    13 C    0.962
    20   1 H    0.998 --     1 C    0.971
    21   1 H    0.998 --     2 C    0.971
    22   1 H    0.998 --     3 C    0.967
    23   1 H    0.998 --     6 C    0.968
    24   1 H    0.994 --     7 C    0.965
    25   1 H    0.994 --     7 C    0.960
    26   1 H    0.891 --    10 O    0.865
    27   1 H    0.959 --    11 N    0.899
    28   1 H    0.995 --    14 C    0.966
    29   1 H    0.997 --    15 C    0.968
    30   1 H    0.995 --    16 C    0.966
 ---------------------------------------------------------------------------

molecular dipole:
                 x           y           z       tot (Debye)
 q only:        0.989      -0.051       0.101
   full:        0.928       0.149      -0.127       2.410

           -------------------------------------------------
          | TOTAL ENERGY              -55.769639966219 Eh   |
          | GRADIENT NORM               0.000398167584 Eh/α |
          | HOMO-LUMO GAP               3.202331646370 eV   |
           -------------------------------------------------

 * finished run on 2024/09/20 at 14:37:22.001
