   * xtb version 6.6.0 (conda-forge) compiled by 'runner@Mac-1676020848589.local' on 2023-02-10
          program call               : xtb Caffeine.xyz --opt --alpb water --gfn2

   ID    Z sym.   atoms
    1    6 C      1, 3, 5-7, 10, 13, 14
    2    7 N      2, 4, 9, 12
    3    8 O      8, 11
    4    1 H      15-24

      * Solvation model:               ALPB
        Solvent                        water
        Solvent mass                       1.8000E+01 g/mol
          :  Hamiltonian                  GFN2-xTB          :
 * total energy  :   -42.1523069 Eh     change       -0.2507008E-09 Eh
 * total energy  :   -42.1672637 Eh     change       -0.1495671E-01 Eh
 * total energy  :   -42.1706323 Eh     change       -0.3368675E-02 Eh
 * total energy  :   -42.1709819 Eh     change       -0.3496116E-03 Eh
 * total energy  :   -42.1710956 Eh     change       -0.1136417E-03 Eh
 * total energy  :   -42.1711133 Eh     change       -0.1773196E-04 Eh
 * total energy  :   -42.1711257 Eh     change       -0.1235294E-04 Eh
 * total energy  :   -42.1711312 Eh     change       -0.5495045E-05 Eh
 * total energy  :   -42.1711357 Eh     change       -0.4505873E-05 Eh
   *** GEOMETRY OPTIMIZATION CONVERGED AFTER 9 ITERATIONS ***

 final structure:
================
24
 xtb: 6.6.0 (conda-forge)
C            3.28429617061034        0.61291281664103       -0.20595818416507
N            2.15489021837682       -0.27436033833896       -0.21579760146927
C            2.15717747816742       -1.60552170322454       -0.37073547217414
N            0.95392776709642       -2.14856746877056       -0.33262645782559
C            0.11963937607189       -1.10530555351367       -0.14118821108231
C            0.83632208978382        0.08508811113408       -0.06178023920723
C            0.19884120038902        1.34242609425888        0.14325444698352
O            0.74183821772861        2.43903708446795        0.22815016342714
N           -1.18551208568747        1.20824928265615        0.25154695674904
C           -1.91981502422422        0.03445511368252        0.16449982560257
O           -3.13851653753887        0.04578411960693        0.26628355475520
N           -1.23473662724120       -1.13527598242401       -0.02604726810945
C           -1.95916392972137       -2.38791993315103       -0.12782085090757
C           -1.95031833051807        2.42899672851605        0.46460406344938
H            4.19292449209861        0.03203136669124       -0.33701795082824
H            3.18836958815380        1.34422946589211       -1.00852545969373
H            3.31925832025655        1.15541195092223        0.73868661256310
H            3.05077418255968       -2.17863979160906       -0.51287530133859
H           -1.27186038535311       -3.18921614379538        0.12536299447101
H           -2.80429624341490       -2.35904726323240        0.55686892840633
H           -2.33083411508933       -2.52499658316112       -1.14295084817877
H           -2.81593920022896        2.19736661801983        1.08022439278635
H           -2.28671132036542        2.83234948428059       -0.49045616293083
H           -1.30045530191009        3.15061252445115        0.95419806871717

          :  Hamiltonian                  GFN2-xTB          :
         :: total energy             -42.171135678021 Eh    ::
         :: gradient norm              0.000878541532 Eh/a0 ::
         :: HOMO-LUMO gap              3.394982770944 eV    ::
         :: SCC energy               -42.681053684169 Eh    ::
         :: -> dispersion             -0.023197166101 Eh    ::
         :: -> Gsolv                  -0.021777629028 Eh    ::
         :: repulsion energy           0.509819037285 Eh    ::

    * Orbital Energies and Occupations

         #    Occupation            Energy/Eh            Energy/eV
      -------------------------------------------------------------
         1        2.0000           -0.7301620             -19.8687
       ...           ...                  ...                  ...
        25        2.0000           -0.5034682             -13.7001
        26        2.0000           -0.5009114             -13.6305
        27        2.0000           -0.4967202             -13.5164
        28        2.0000           -0.4895293             -13.3208
        29        2.0000           -0.4771960             -12.9852
        30        2.0000           -0.4754588             -12.9379
        31        2.0000           -0.4567149             -12.4278
        32        2.0000           -0.4395585             -11.9610
        33        2.0000           -0.4373578             -11.9011
        34        2.0000           -0.4256613             -11.5828
        35        2.0000           -0.4242624             -11.5448
        36        2.0000           -0.4081282             -11.1057
        37        2.0000           -0.3934141             -10.7053 (HOMO)
        38                         -0.2686508              -7.3104 (LUMO)
        39                         -0.2292214              -6.2374
        40                         -0.2064967              -5.6191
        41                         -0.1277516              -3.4763
        42                         -0.0474645              -1.2916
        43                          0.0052573               0.1431
        44                          0.0187007               0.5089
        45                          0.0856747               2.3313
        46                          0.0963244               2.6211
        47                          0.1134823               3.0880
        48                          0.1451105               3.9487
       ...                                ...                  ...
        66                          0.6680594              18.1788
      -------------------------------------------------------------
                  HL-Gap            0.1247633 Eh            3.3950 eV

     #   Z          covCN         q      C6AA      α(0)
     1   6 C        3.690    -0.079    22.212     6.745
     2   7 N        2.834     0.019    20.925     6.794
     3   6 C        3.208     0.084    25.541     8.229
     4   7 N        1.894    -0.300    28.631     7.933
     5   6 C        3.195     0.124    24.797     8.119
     6   6 C        3.122    -0.040    28.794     8.788
     7   6 C        2.767     0.266    22.504     7.769
     8   8 O        0.858    -0.501    23.805     6.541
     9   7 N        2.749    -0.117    23.540     7.206
    10   6 C        2.732     0.318    21.598     7.609
    11   8 O        0.860    -0.510    24.010     6.570
    12   7 N        2.741    -0.067    22.530     7.050
    13   6 C        3.701    -0.071    22.022     6.711
    14   6 C        3.706    -0.054    21.700     6.659
    15   1 H        0.925     0.101     1.776     2.084
    16   1 H        0.925     0.094     1.843     2.123
    17   1 H        0.925     0.094     1.841     2.122
    18   1 H        0.926     0.091     1.871     2.139
    19   1 H        0.925     0.109     1.703     2.041
    20   1 H        0.925     0.093     1.850     2.127
    21   1 H        0.925     0.089     1.892     2.151
    22   1 H        0.925     0.088     1.901     2.156
    23   1 H        0.925     0.077     2.011     2.218
    24   1 H        0.925     0.092     1.858     2.132

Wiberg/Mayer (AO) data.
largest (>0.10) Wiberg bond orders for each atom

     #   Z sym  total        # sym  WBO       # sym  WBO       # sym  WBO
 ---------------------------------------------------------------------------
     1   6 C    3.942 --     2 N    0.992    15 H    0.975    17 H    0.967
                            16 H    0.966
     2   7 N    3.667 --     3 C    1.325     6 C    1.156     1 C    0.992
                             4 N    0.102
     3   6 C    3.949 --     4 N    1.458     2 N    1.325    18 H    0.957
     4   7 N    3.000 --     3 C    1.458     5 C    1.298     2 N    0.102
     5   6 C    3.966 --     6 C    1.327     4 N    1.298    12 N    1.141
     6   6 C    3.943 --     5 C    1.327     2 N    1.156     7 C    1.135
     7   6 C    3.955 --     8 O    1.594     6 C    1.135     9 N    1.107
     8   8 O    1.941 --     7 C    1.594     9 N    0.139
     9   7 N    3.553 --    10 C    1.119     7 C    1.107    14 C    0.977
                             8 O    0.139    11 O    0.125
    10   6 C    3.960 --    11 O    1.574    12 N    1.160     9 N    1.119
    11   8 O    1.921 --    10 C    1.574    12 N    0.137     9 N    0.125
    12   7 N    3.581 --    10 C    1.160     5 C    1.141    13 C    0.971
                            11 O    0.137
    13   6 C    3.930 --    20 H    0.974    19 H    0.973    12 N    0.971
                            21 H    0.969
    14   6 C    3.940 --     9 N    0.977    22 H    0.974    24 H    0.973
                            23 H    0.972
    15   1 H    0.989 --     1 C    0.975
    16   1 H    0.991 --     1 C    0.966
    17   1 H    0.991 --     1 C    0.967
    18   1 H    0.991 --     3 C    0.957
    19   1 H    0.987 --    13 C    0.973
    20   1 H    0.990 --    13 C    0.974
    21   1 H    0.990 --    13 C    0.969
    22   1 H    0.992 --    14 C    0.974
    23   1 H    0.993 --    14 C    0.972
    24   1 H    0.991 --    14 C    0.973
 ---------------------------------------------------------------------------

molecular dipole:
                 x           y           z       tot (Debye)
 q only:        1.807      -1.209      -0.254
   full:        1.966      -0.940      -0.268       5.582

           -------------------------------------------------
          | TOTAL ENERGY              -42.171135678021 Eh   |
          | GRADIENT NORM               0.000878541532 Eh/α |
          | HOMO-LUMO GAP               3.394982770944 eV   |
           -------------------------------------------------

 * finished run on 2024/09/06 at 21:30:08.881
