   * xtb version 6.6.0 (conda-forge) compiled by 'runner@Mac-1676020848589.local' on 2023-02-10
          program call               : xtb ibuprofen.xyz --opt --gfn2

   ID    Z sym.   atoms
    1    6 C      1-13
    2    8 O      14, 15
    3    1 H      16-33

          :  Hamiltonian                  GFN2-xTB          :
 * total energy  :   -45.1500390 Eh     change       -0.5090897E-09 Eh
 * total energy  :   -45.1673647 Eh     change       -0.1732571E-01 Eh
 * total energy  :   -45.1705479 Eh     change       -0.3183254E-02 Eh
 * total energy  :   -45.1708471 Eh     change       -0.2991960E-03 Eh
 * total energy  :   -45.1709716 Eh     change       -0.1244351E-03 Eh
 * total energy  :   -45.1710276 Eh     change       -0.5603478E-04 Eh
 * total energy  :   -45.1710736 Eh     change       -0.4602095E-04 Eh
 * total energy  :   -45.1710957 Eh     change       -0.2202290E-04 Eh
 * total energy  :   -45.1711120 Eh     change       -0.1631826E-04 Eh
 * total energy  :   -45.1711281 Eh     change       -0.1616113E-04 Eh
 * total energy  :   -45.1711363 Eh     change       -0.8159763E-05 Eh
 * total energy  :   -45.1711416 Eh     change       -0.5274957E-05 Eh
 * total energy  :   -45.1711458 Eh     change       -0.4231691E-05 Eh
   *** GEOMETRY OPTIMIZATION CONVERGED AFTER 13 ITERATIONS ***

 final structure:
================
33
 xtb: 6.6.0 (conda-forge)
C           -3.26000752467764       -0.29496073890726       -1.26134166676427
C           -3.33774988100263        0.52123470128410        0.02537557435235
C           -2.96137494227834        1.97478063281493       -0.24617835547567
C           -2.46186020448090       -0.09085722180232        1.13832551850852
C           -1.00018918155605       -0.12404473915215        0.79878509181175
C           -0.44495431317642       -1.21165688603048        0.13431352276350
C            0.89669520061858       -1.23519092918566       -0.19719327388824
C            1.72339536212155       -0.16906017597917        0.13383869091596
C            1.17571559155085        0.91851184924712        0.79885774348267
C           -0.16706993641991        0.93722917705148        1.12997044634834
C            3.20003943970241       -0.20315201086393       -0.20048836882658
C            3.91341960603502       -1.32623143321211        0.55346905753038
C            3.31756154136951       -0.40261190384915       -1.69604321977591
O            3.29780534117690       -1.45662723918993       -2.27175988193325
O            3.41444374136295        0.76724787427821       -2.34258714766891
H           -2.24954899956127       -0.27814594433647       -1.66319006997113
H           -3.54532200800259       -1.32906243667296       -1.08052309903178
H           -3.93317439768437        0.11799381986341       -2.00953324664769
H           -4.37310984268193        0.49584333392404        0.38632344790379
H           -1.94328421358906        2.04068856998866       -0.62316494331533
H           -3.63040700079963        2.40375010804503       -0.98905366136090
H           -3.03513812226926        2.56910649910787        0.66202083782553
H           -2.81178780144766       -1.10785652029185        1.32969908421090
H           -2.60774204868875        0.49396955119048        2.04946283430704
H           -1.06913508339061       -2.05521987950311       -0.12232626762778
H            1.30532380409459       -2.08404008487704       -0.72467867648732
H            1.80434493606225        1.75603113966371        1.06632181732263
H           -0.57062873933086        1.78821355494977        1.65946010238769
H            3.64254975212472        0.76558116097659        0.04606734448480
H            4.98817599808359       -1.26229399069197        0.39960213904815
H            3.70356373235953       -1.25074307789300        1.61744442464700
H            3.57128113662276       -2.29225299600551        0.19308915557298
H            3.44826905775273        0.62342623605856       -3.30196495464905

          :  Hamiltonian                  GFN2-xTB          :
         :: total energy             -45.171145802114 Eh    ::
         :: gradient norm              0.000414635912 Eh/a0 ::
         :: HOMO-LUMO gap              4.093440491983 eV    ::
         :: SCC energy               -45.836537928173 Eh    ::
         :: -> dispersion             -0.030173707665 Eh    ::
         :: repulsion energy           0.665108613172 Eh    ::

    * Orbital Energies and Occupations

         #    Occupation            Energy/Eh            Energy/eV
      -------------------------------------------------------------
         1        2.0000           -0.7446478             -20.2629
       ...           ...                  ...                  ...
        29        2.0000           -0.4665010             -12.6941
        30        2.0000           -0.4621933             -12.5769
        31        2.0000           -0.4592189             -12.4960
        32        2.0000           -0.4523542             -12.3092
        33        2.0000           -0.4477182             -12.1830
        34        2.0000           -0.4381646             -11.9231
        35        2.0000           -0.4365951             -11.8804
        36        2.0000           -0.4320275             -11.7561
        37        2.0000           -0.4231527             -11.5146
        38        2.0000           -0.4154271             -11.3043
        39        2.0000           -0.4099470             -11.1552
        40        2.0000           -0.4013023             -10.9200
        41        2.0000           -0.3877374             -10.5509 (HOMO)
        42                         -0.2373063              -6.4574 (LUMO)
        43                         -0.2198743              -5.9831
        44                         -0.2152126              -5.8562
        45                         -0.0939237              -2.5558
        46                          0.0480553               1.3077
        47                          0.0839517               2.2844
        48                          0.0903319               2.4581
        49                          0.0939192               2.5557
        50                          0.1068949               2.9088
        51                          0.1190398               3.2392
        52                          0.1321103               3.5949
       ...                                ...                  ...
        78                          0.6584281              17.9167
      -------------------------------------------------------------
                  HL-Gap            0.1504312 Eh            4.0934 eV

     #   Z          covCN         q      C6AA      α(0)
     1   6 C        3.755    -0.106    22.574     6.775
     2   6 C        3.849    -0.005    20.638     6.462
     3   6 C        3.755    -0.106    22.571     6.774
     4   6 C        3.809    -0.067    21.786     6.644
     5   6 C        2.967     0.016    27.651     8.625
     6   6 C        2.925    -0.038    28.937     8.822
     7   6 C        2.922    -0.039    28.974     8.827
     8   6 C        2.980     0.009    27.812     8.651
     9   6 C        2.922    -0.039    28.978     8.828
    10   6 C        2.925    -0.038    28.956     8.825
    11   6 C        3.858    -0.042    21.293     6.563
    12   6 C        3.756    -0.103    22.523     6.767
    13   6 C        2.699     0.363    20.844     7.472
    14   8 O        0.856    -0.409    21.869     6.270
    15   8 O        1.659    -0.381    20.491     6.111
    16   1 H        0.925     0.039     2.467     2.456
    17   1 H        0.925     0.033     2.546     2.495
    18   1 H        0.925     0.034     2.534     2.489
    19   1 H        0.924     0.027     2.629     2.536
    20   1 H        0.925     0.038     2.473     2.459
    21   1 H        0.925     0.034     2.534     2.489
    22   1 H        0.925     0.032     2.553     2.499
    23   1 H        0.924     0.037     2.488     2.467
    24   1 H        0.924     0.036     2.497     2.471
    25   1 H        0.926     0.035     2.513     2.479
    26   1 H        0.926     0.045     2.386     2.416
    27   1 H        0.926     0.030     2.585     2.514
    28   1 H        0.926     0.034     2.535     2.490
    29   1 H        0.924     0.058     2.226     2.333
    30   1 H        0.925     0.042     2.416     2.431
    31   1 H        0.925     0.046     2.376     2.411
    32   1 H        0.925     0.060     2.198     2.318
    33   1 H        0.804     0.327     0.645     1.261

Wiberg/Mayer (AO) data.
largest (>0.10) Wiberg bond orders for each atom

     #   Z sym  total        # sym  WBO       # sym  WBO       # sym  WBO
 ---------------------------------------------------------------------------
     1   6 C    3.997 --     2 C    1.011    17 H    0.986    18 H    0.986
                            16 H    0.984
     2   6 C    3.995 --     1 C    1.011     3 C    1.011     4 C    0.974
                            19 H    0.969
     3   6 C    3.997 --     2 C    1.011    22 H    0.987    21 H    0.986
                            20 H    0.985
     4   6 C    3.997 --     5 C    1.016     2 C    0.974    24 H    0.972
                            23 H    0.972
     5   6 C    3.987 --    10 C    1.410     6 C    1.405     4 C    1.016
                             8 C    0.105
     6   6 C    3.992 --     7 C    1.452     5 C    1.405    25 H    0.968
                             9 C    0.108
     7   6 C    3.991 --     6 C    1.452     8 C    1.406    26 H    0.967
                            10 C    0.109
     8   6 C    3.985 --     9 C    1.412     7 C    1.406    11 C    0.967
                             5 C    0.105
     9   6 C    3.991 --    10 C    1.445     8 C    1.412    27 H    0.968
                             6 C    0.108
    10   6 C    3.991 --     9 C    1.445     5 C    1.410    28 H    0.968
                             7 C    0.109
    11   6 C    3.992 --    12 C    0.990     8 C    0.967    29 H    0.962
                            13 C    0.955
    12   6 C    3.992 --    11 C    0.990    30 H    0.986    31 H    0.986
                            32 H    0.983
    13   6 C    3.907 --    14 O    1.766    15 O    1.127    11 C    0.955
    14   8 O    2.041 --    13 C    1.766    15 O    0.170
    15   8 O    2.194 --    13 C    1.127    33 H    0.867    14 O    0.170
    16   1 H    0.999 --     1 C    0.984
    17   1 H    0.999 --     1 C    0.986
    18   1 H    0.999 --     1 C    0.986
    19   1 H    0.999 --     2 C    0.969
    20   1 H    0.999 --     3 C    0.985
    21   1 H    0.999 --     3 C    0.986
    22   1 H    0.999 --     3 C    0.987
    23   1 H    0.998 --     4 C    0.972
    24   1 H    0.998 --     4 C    0.972
    25   1 H    0.998 --     6 C    0.968
    26   1 H    0.998 --     7 C    0.967
    27   1 H    0.999 --     9 C    0.968
    28   1 H    0.998 --    10 C    0.968
    29   1 H    0.996 --    11 C    0.962
    30   1 H    0.997 --    12 C    0.986
    31   1 H    0.998 --    12 C    0.986
    32   1 H    0.996 --    12 C    0.983
    33   1 H    0.893 --    15 O    0.867
 ---------------------------------------------------------------------------

molecular dipole:
                 x           y           z       tot (Debye)
 q only:       -0.312       0.523       0.360
   full:       -0.257       0.624       0.220       1.805

           -------------------------------------------------
          | TOTAL ENERGY              -45.171145802114 Eh   |
          | GRADIENT NORM               0.000414635912 Eh/α |
          | HOMO-LUMO GAP               4.093440491983 eV   |
           -------------------------------------------------

 * finished run on 2024/09/14 at 13:17:06.880
