   * xtb version 6.6.0 (conda-forge) compiled by 'runner@Mac-1676020848589.local' on 2023-02-10
          program call               : xtb citric_acid.xyz --opt

   ID    Z sym.   atoms
    1    6 C      1, 2, 5-7, 10
    2    8 O      3, 4, 8, 9, 11-13
    3    1 H      14-21

          :  Hamiltonian                  GFN2-xTB          :
 * total energy  :   -45.3614660 Eh     change       -0.6403411E-10 Eh
 * total energy  :   -45.3992589 Eh     change       -0.3779291E-01 Eh
 * total energy  :   -45.4097246 Eh     change       -0.1046571E-01 Eh
 * total energy  :   -45.4115236 Eh     change       -0.1798953E-02 Eh
 * total energy  :   -45.4122251 Eh     change       -0.7015434E-03 Eh
 * total energy  :   -45.4128873 Eh     change       -0.6621748E-03 Eh
 * total energy  :   -45.4137418 Eh     change       -0.8544687E-03 Eh
 * total energy  :   -45.4144128 Eh     change       -0.6710442E-03 Eh
 * total energy  :   -45.4150305 Eh     change       -0.6176559E-03 Eh
 * total energy  :   -45.4153964 Eh     change       -0.3659430E-03 Eh
 * total energy  :   -45.4167941 Eh     change       -0.2437463E-04 Eh
 * total energy  :   -45.4168108 Eh     change       -0.1668295E-04 Eh
 * total energy  :   -45.4168179 Eh     change       -0.7125212E-05 Eh
 * total energy  :   -45.4168296 Eh     change       -0.1169223E-04 Eh
 * total energy  :   -45.4168346 Eh     change       -0.5008490E-05 Eh
 * total energy  :   -45.4168429 Eh     change       -0.8271889E-05 Eh
 * total energy  :   -45.4168457 Eh     change       -0.2810873E-05 Eh
 * total energy  :   -45.4168494 Eh     change       -0.3653982E-05 Eh
 * total energy  :   -45.4168522 Eh     change       -0.2861394E-05 Eh
   *** GEOMETRY OPTIMIZATION CONVERGED AFTER 30 ITERATIONS ***

 final structure:
================
21
 xtb: 6.6.0 (conda-forge)
C            0.95682486483486       -0.90996296408380       -0.02110432837583
C            1.88507932833477        0.26076468338330        0.18495001394253
O            2.43800677058465        0.87366407444421       -0.68660635315826
O            2.04496160955255        0.54804958613689        1.48272749128836
C           -0.53617465939391       -0.55116493950729        0.21593971809067
C           -1.06621747705360        0.43818243718026       -0.84910339366874
C           -0.40023456732382        1.79273711718005       -0.92212693089824
O           -0.28632365711291        2.42929011804443       -1.92893407463504
O            0.00244559609102        2.26394974235814        0.27225108306274
C           -1.34243796537021       -1.85171536708392        0.03519573917767
O           -2.08463056309491       -2.32390093292199        0.84127804772389
O           -1.12044828175557       -2.40260787205676       -1.16591364337238
O           -0.78451446184454       -0.12702158924349        1.51767477931196
H            1.22544817403498       -1.68350417954053        0.70106227453493
H            1.07850318089429       -1.28084458564034       -1.03791113240892
H            2.66099415998104        1.28803818387952        1.60030497660133
H           -2.12040429393470        0.62899885872255       -0.62112905493403
H           -1.00630098780124       -0.01153002759386       -1.84044695368195
H            0.39202950334953        3.14581915238488        0.15639600097620
H           -1.64197819167985       -3.21605717638127       -1.26100833979352
H           -0.29462808129256        0.68881568033915        1.68650408021642

          :  Hamiltonian                  GFN2-xTB          :
         :: total energy             -45.416852227867 Eh    ::
         :: gradient norm              0.000624552171 Eh/a0 ::
         :: HOMO-LUMO gap              4.458021259223 eV    ::
         :: SCC energy               -45.779033050276 Eh    ::
         :: -> dispersion             -0.018520565490 Eh    ::
         :: repulsion energy           0.362039425363 Eh    ::

    * Orbital Energies and Occupations

         #    Occupation            Energy/Eh            Energy/eV
      -------------------------------------------------------------
         1        2.0000           -0.7672361             -20.8776
       ...           ...                  ...                  ...
        25        2.0000           -0.5326293             -14.4936
        26        2.0000           -0.5237782             -14.2527
        27        2.0000           -0.5151938             -14.0191
        28        2.0000           -0.5088540             -13.8466
        29        2.0000           -0.4995361             -13.5931
        30        2.0000           -0.4966475             -13.5145
        31        2.0000           -0.4963012             -13.5050
        32        2.0000           -0.4870166             -13.2524
        33        2.0000           -0.4801191             -13.0647
        34        2.0000           -0.4536618             -12.3448
        35        2.0000           -0.4460878             -12.1387
        36        2.0000           -0.4360375             -11.8652
        37        2.0000           -0.4256516             -11.5826 (HOMO)
        38                         -0.2618224              -7.1245 (LUMO)
        39                         -0.2536308              -6.9016
        40                         -0.2462951              -6.7020
        41                          0.0006160               0.0168
        42                          0.0264789               0.7205
        43                          0.0331460               0.9019
        44                          0.0357475               0.9727
        45                          0.0411945               1.1210
        46                          0.0815384               2.2188
        47                          0.1192781               3.2457
        48                          0.1435551               3.9063
       ...                                ...                  ...
        60                          0.6492475              17.6669
      -------------------------------------------------------------
                  HL-Gap            0.1638293 Eh            4.4580 eV

     #   Z          covCN         q      C6AA      α(0)
     1   6 C        3.805    -0.110    22.589     6.766
     2   6 C        2.688     0.364    20.822     7.468
     3   8 O        0.856    -0.403    21.744     6.252
     4   8 O        1.660    -0.369    20.266     6.077
     5   6 C        3.773     0.138    18.379     6.109
     6   6 C        3.806    -0.110    22.590     6.766
     7   6 C        2.686     0.365    20.803     7.464
     8   8 O        0.856    -0.382    21.333     6.192
     9   8 O        1.659    -0.388    20.612     6.129
    10   6 C        2.696     0.352    21.019     7.504
    11   8 O        0.856    -0.354    20.777     6.111
    12   8 O        1.659    -0.380    20.470     6.108
    13   8 O        1.658    -0.420    21.234     6.221
    14   1 H        0.924     0.087     1.907     2.160
    15   1 H        0.925     0.088     1.896     2.153
    16   1 H        0.804     0.331     0.634     1.251
    17   1 H        0.924     0.094     1.840     2.121
    18   1 H        0.924     0.092     1.856     2.130
    19   1 H        0.804     0.337     0.620     1.237
    20   1 H        0.804     0.341     0.610     1.227
    21   1 H        0.805     0.325     0.650     1.267

Wiberg/Mayer (AO) data.
largest (>0.10) Wiberg bond orders for each atom

     #   Z sym  total        # sym  WBO       # sym  WBO       # sym  WBO
 ---------------------------------------------------------------------------
     1   6 C    3.990 --     2 C    0.978    15 H    0.967    14 H    0.958
                             5 C    0.935
     2   6 C    3.918 --     3 O    1.768     4 O    1.132     1 C    0.978
     3   8 O    2.045 --     2 C    1.768     4 O    0.174
     4   8 O    2.208 --     2 C    1.132    16 H    0.865     3 O    0.174
     5   6 C    3.968 --    13 O    1.024     6 C    0.953     1 C    0.935
                            10 C    0.918
     6   6 C    3.989 --     7 C    0.977    18 H    0.963     5 C    0.953
                            17 H    0.939
     7   6 C    3.918 --     8 O    1.792     9 O    1.111     6 C    0.977
     8   8 O    2.066 --     7 C    1.792     9 O    0.170
     9   8 O    2.189 --     7 C    1.111    19 H    0.860     8 O    0.170
    10   6 C    3.921 --    11 O    1.815    12 O    1.127     5 C    0.918
    11   8 O    2.091 --    10 C    1.815    12 O    0.179
    12   8 O    2.194 --    10 C    1.127    20 H    0.859    11 O    0.179
    13   8 O    1.993 --     5 C    1.024    21 H    0.863
    14   1 H    0.992 --     1 C    0.958
    15   1 H    0.992 --     1 C    0.967
    16   1 H    0.890 --     4 O    0.865
    17   1 H    0.991 --     6 C    0.939
    18   1 H    0.991 --     6 C    0.963
    19   1 H    0.887 --     9 O    0.860
    20   1 H    0.884 --    12 O    0.859
    21   1 H    0.894 --    13 O    0.863
 ---------------------------------------------------------------------------

molecular dipole:
                 x           y           z       tot (Debye)
 q only:        0.256      -0.165       0.340
   full:        0.469       0.017       0.307       1.425

           -------------------------------------------------
          | TOTAL ENERGY              -45.416852227867 Eh   |
          | GRADIENT NORM               0.000624552171 Eh/α |
          | HOMO-LUMO GAP               4.458021259223 eV   |
           -------------------------------------------------

 * finished run on 2024/09/23 at 19:15:08.488
