   * xtb version 6.6.0 (conda-forge) compiled by 'runner@Mac-1676020848589.local' on 2023-02-10
          program call               : xtb caffeine.xyz --opt --gfn2

   ID    Z sym.   atoms
    1    6 C      1, 3, 5-7, 10, 13, 14
    2    7 N      2, 4, 9, 12
    3    8 O      8, 11
    4    1 H      15-24

          :  Hamiltonian                  GFN2-xTB          :
 * total energy  :   -42.1318614 Eh     change       -0.1918821E-09 Eh
 * total energy  :   -42.1490818 Eh     change       -0.1722038E-01 Eh
 * total energy  :   -42.1530729 Eh     change       -0.3991093E-02 Eh
 * total energy  :   -42.1534730 Eh     change       -0.4001252E-03 Eh
 * total energy  :   -42.1535944 Eh     change       -0.1213798E-03 Eh
 * total energy  :   -42.1536134 Eh     change       -0.1899060E-04 Eh
 * total energy  :   -42.1536293 Eh     change       -0.1590509E-04 Eh
 * total energy  :   -42.1536377 Eh     change       -0.8414622E-05 Eh
 * total energy  :   -42.1536363 Eh     change        0.1446113E-05 Eh
 * total energy  :   -42.1536426 Eh     change       -0.6337238E-05 Eh
 * total energy  :   -42.1536922 Eh     change       -0.2942505E-03 Eh
 * total energy  :   -42.1537041 Eh     change       -0.1188228E-04 Eh
 * total energy  :   -42.1537305 Eh     change       -0.2642521E-04 Eh
 * total energy  :   -42.1537735 Eh     change       -0.4300598E-04 Eh
 * total energy  :   -42.1528698 Eh     change        0.9037352E-03 Eh
 * total energy  :   -42.1537471 Eh     change       -0.8773631E-03 Eh
 * total energy  :   -42.1537905 Eh     change       -0.4339970E-04 Eh
 * total energy  :   -42.1538091 Eh     change       -0.1858739E-04 Eh
 * total energy  :   -42.1538141 Eh     change       -0.4959831E-05 Eh
   *** GEOMETRY OPTIMIZATION CONVERGED AFTER 22 ITERATIONS ***

 final structure:
================
24
 xtb: 6.6.0 (conda-forge)
C            3.27587571611959        0.61559125317589       -0.19034515373817
N            2.15778156861543       -0.28276809380920       -0.20379925520114
C            2.15784192525483       -1.61604533950412       -0.37112158420057
N            0.95602927643258       -2.15217698356729       -0.34272227758924
C            0.12202837032499       -1.10699207888074       -0.14650273855697
C            0.83829318693451        0.07781054996820       -0.05361334562372
C            0.21336749481511        1.34768575869515        0.16058382529274
O            0.76590453877117        2.42687332386774        0.25887467767923
N           -1.17441966873913        1.21011802778766        0.25542057653115
C           -1.92259671321629        0.04280020200304        0.15922221606689
O           -3.12991333399358        0.06023330567667        0.25381191707020
N           -1.23181508119257       -1.13452458449309       -0.03685435419454
C           -1.96164092784305       -2.37821059062971       -0.15437014480537
C           -1.95086979230029        2.42021801703274        0.47057421976241
H            4.19826627683765        0.04571610234029       -0.28449864478870
H            3.19484785082473        1.32535327078437       -1.01526385025188
H            3.28387152261490        1.18429332074672        0.74030179803511
H            3.05382151125149       -2.18689138772105       -0.51375125809749
H           -1.29911658562837       -3.18786443879733        0.14074253130492
H           -2.83739993788442       -2.33099839321528        0.49068434412013
H           -2.28914948712516       -2.53172358182862       -1.18413278029557
H           -2.64839426205136        2.26321794972878        1.29139613607992
H           -2.51822922256593        2.66613041165896       -0.42724566226647
H           -1.25428422625683        3.22225397898025        0.70250880766712

          :  Hamiltonian                  GFN2-xTB          :
         :: total energy             -42.153814077791 Eh    ::
         :: gradient norm              0.000456488275 Eh/a0 ::
         :: HOMO-LUMO gap              3.423097847581 eV    ::
         :: SCC energy               -42.666613977412 Eh    ::
         :: -> dispersion             -0.023328674085 Eh    ::
         :: repulsion energy           0.512699905571 Eh    ::

    * Orbital Energies and Occupations

         #    Occupation            Energy/Eh            Energy/eV
      -------------------------------------------------------------
         1        2.0000           -0.7199585             -19.5911
       ...           ...                  ...                  ...
        25        2.0000           -0.5059065             -13.7664
        26        2.0000           -0.5044635             -13.7272
        27        2.0000           -0.5034842             -13.7005
        28        2.0000           -0.4946735             -13.4608
        29        2.0000           -0.4812802             -13.0963
        30        2.0000           -0.4742599             -12.9053
        31        2.0000           -0.4602075             -12.5229
        32        2.0000           -0.4362067             -11.8698
        33        2.0000           -0.4278888             -11.6434
        34        2.0000           -0.4180719             -11.3763
        35        2.0000           -0.4139302             -11.2636
        36        2.0000           -0.4040581             -10.9950
        37        2.0000           -0.3884376             -10.5699 (HOMO)
        38                         -0.2626410              -7.1468 (LUMO)
        39                         -0.2186221              -5.9490
        40                         -0.2048998              -5.5756
        41                         -0.1215701              -3.3081
        42                         -0.0433915              -1.1807
        43                          0.0026447               0.0720
        44                          0.0227064               0.6179
        45                          0.0855846               2.3289
        46                          0.0925674               2.5189
        47                          0.1183408               3.2202
        48                          0.1289943               3.5101
       ...                                ...                  ...
        66                          0.6955269              18.9263
      -------------------------------------------------------------
                  HL-Gap            0.1257965 Eh            3.4231 eV

     #   Z          covCN         q      C6AA      α(0)
     1   6 C        3.689    -0.055    21.755     6.675
     2   7 N        2.837     0.003    21.215     6.841
     3   6 C        3.203     0.089    25.484     8.224
     4   7 N        1.896    -0.285    28.252     7.880
     5   6 C        3.193     0.123    24.836     8.126
     6   6 C        3.121    -0.041    28.823     8.793
     7   6 C        2.764     0.264    22.556     7.778
     8   8 O        0.858    -0.436    22.417     6.348
     9   7 N        2.750    -0.118    23.558     7.209
    10   6 C        2.731     0.313    21.679     7.623
    11   8 O        0.860    -0.439    22.471     6.356
    12   7 N        2.741    -0.076    22.716     7.079
    13   6 C        3.700    -0.050    21.629     6.651
    14   6 C        3.709    -0.042    21.460     6.621
    15   1 H        0.925     0.066     2.133     2.284
    16   1 H        0.924     0.080     1.974     2.197
    17   1 H        0.924     0.084     1.942     2.180
    18   1 H        0.926     0.055     2.263     2.352
    19   1 H        0.925     0.084     1.937     2.176
    20   1 H        0.925     0.085     1.923     2.169
    21   1 H        0.924     0.067     2.113     2.273
    22   1 H        0.925     0.073     2.050     2.239
    23   1 H        0.925     0.066     2.133     2.284
    24   1 H        0.925     0.089     1.887     2.148

Wiberg/Mayer (AO) data.
largest (>0.10) Wiberg bond orders for each atom

     #   Z sym  total        # sym  WBO       # sym  WBO       # sym  WBO
 ---------------------------------------------------------------------------
     1   6 C    3.959 --     2 N    1.000    15 H    0.981    17 H    0.970
                            16 H    0.969
     2   7 N    3.652 --     3 C    1.306     6 C    1.148     1 C    1.000
                             4 N    0.109
     3   6 C    3.955 --     4 N    1.477     2 N    1.306    18 H    0.962
     4   7 N    3.007 --     3 C    1.477     5 C    1.285     2 N    0.109
     5   6 C    3.967 --     6 C    1.346     4 N    1.285    12 N    1.143
     6   6 C    3.935 --     5 C    1.346     2 N    1.148     7 C    1.111
     7   6 C    3.960 --     8 O    1.645     6 C    1.111     9 N    1.096
     8   8 O    2.003 --     7 C    1.645     9 N    0.147
     9   7 N    3.545 --    10 C    1.107     7 C    1.096    14 C    0.982
                             8 O    0.147    11 O    0.131
    10   6 C    3.961 --    11 O    1.635    12 N    1.122     9 N    1.107
    11   8 O    1.989 --    10 C    1.635    12 N    0.139     9 N    0.131
    12   7 N    3.563 --     5 C    1.143    10 C    1.122    13 C    0.981
                            11 O    0.139
    13   6 C    3.948 --    12 N    0.981    19 H    0.977    20 H    0.975
                            21 H    0.973
    14   6 C    3.948 --     9 N    0.982    22 H    0.976    23 H    0.975
                            24 H    0.973
    15   1 H    0.995 --     1 C    0.981
    16   1 H    0.993 --     1 C    0.969
    17   1 H    0.993 --     1 C    0.970
    18   1 H    0.996 --     3 C    0.962
    19   1 H    0.992 --    13 C    0.977
    20   1 H    0.992 --    13 C    0.975
    21   1 H    0.994 --    13 C    0.973
    22   1 H    0.994 --    14 C    0.976
    23   1 H    0.995 --    14 C    0.975
    24   1 H    0.992 --    14 C    0.973
 ---------------------------------------------------------------------------

molecular dipole:
                 x           y           z       tot (Debye)
 q only:        1.182      -0.714      -0.143
   full:        1.489      -0.559      -0.181       4.067

           -------------------------------------------------
          | TOTAL ENERGY              -42.153814077791 Eh   |
          | GRADIENT NORM               0.000456488275 Eh/α |
          | HOMO-LUMO GAP               3.423097847581 eV   |
           -------------------------------------------------

 * finished run on 2024/09/10 at 11:38:03.217
