   * xtb version 6.6.0 (conda-forge) compiled by 'runner@Mac-1676020848589.local' on 2023-02-10
          program call               : xtb pyridine.xyz --opt --gfn2

   ID    Z sym.   atoms
    1    6 C      1-3, 5, 6
    2    7 N      4
    3    1 H      7-11

          :  Hamiltonian                  GFN2-xTB          :
 * total energy  :   -16.1437873 Eh     change       -0.3719691E-11 Eh
 * total energy  :   -16.1497349 Eh     change       -0.5947562E-02 Eh
 * total energy  :   -16.1500947 Eh     change       -0.3598235E-03 Eh
 * total energy  :   -16.1501066 Eh     change       -0.1191311E-04 Eh
 * total energy  :   -16.1501081 Eh     change       -0.1437409E-05 Eh
   *** GEOMETRY OPTIMIZATION CONVERGED AFTER 5 ITERATIONS ***

 final structure:
================
11
 xtb: 6.6.0 (conda-forge)
C           -0.16424783457239        1.17591136574964       -0.02225256916774
C           -1.24682738643576        0.31215862684520        0.03020925257958
C           -0.99681196575452       -1.05179058579888        0.05425878167055
N            0.21924828751147       -1.56952859702610        0.02974524416080
C            1.24708476476338       -0.73976468281615       -0.02028368563717
C            1.11378598866593        0.64041403083708       -0.04820987997348
H           -0.31375144268671        2.24621733549842       -0.04252265919995
H           -2.25866278371006        0.68644159543117        0.05190143963707
H           -1.80738493187756       -1.76850480990351        0.09513931850603
H            2.22317931166539       -1.20803500367284       -0.03874261095493
H            1.98448799243085        1.27648072485596       -0.08904263162078

          :  Hamiltonian                  GFN2-xTB          :
         :: total energy             -16.150108060781 Eh    ::
         :: gradient norm              0.000743443926 Eh/a0 ::
         :: HOMO-LUMO gap              3.210294827699 eV    ::
         :: SCC energy               -16.435679659870 Eh    ::
         :: -> dispersion             -0.007250253169 Eh    ::
         :: repulsion energy           0.285567196377 Eh    ::

    * Orbital Energies and Occupations

         #    Occupation            Energy/Eh            Energy/eV
      -------------------------------------------------------------
         1        2.0000           -0.6635800             -18.0569
       ...           ...                  ...                  ...
         3        2.0000           -0.6285920             -17.1049
         4        2.0000           -0.5912532             -16.0888
         5        2.0000           -0.5850315             -15.9195
         6        2.0000           -0.5412731             -14.7288
         7        2.0000           -0.5162969             -14.0492
         8        2.0000           -0.5069125             -13.7938
         9        2.0000           -0.5066708             -13.7872
        10        2.0000           -0.4886246             -13.2962
        11        2.0000           -0.4725350             -12.8583
        12        2.0000           -0.4400726             -11.9750
        13        2.0000           -0.4382416             -11.9252
        14        2.0000           -0.4190378             -11.4026
        15        2.0000           -0.3680059             -10.0140 (HOMO)
        16                         -0.2500298              -6.8037 (LUMO)
        17                         -0.2382902              -6.4842
        18                         -0.1117263              -3.0402
        19                          0.1151132               3.1324
        20                          0.1261272               3.4321
        21                          0.1569387               4.2705
        22                          0.1792707               4.8782
        23                          0.1800998               4.9008
        24                          0.2999916               8.1632
        25                          0.3887449              10.5783
        26                          0.4192479              11.4083
       ...                                ...                  ...
        29                          0.6164508              16.7745
      -------------------------------------------------------------
                  HL-Gap            0.1179762 Eh            3.2103 eV

     #   Z          covCN         q      C6AA      α(0)
     1   6 C        2.930    -0.010    28.270     8.720
     2   6 C        2.914    -0.038    28.943     8.822
     3   6 C        2.915     0.060    26.644     8.464
     4   7 N        1.836    -0.217    26.579     7.640
     5   6 C        2.915     0.060    26.644     8.464
     6   6 C        2.914    -0.038    28.943     8.822
     7   1 H        0.926     0.034     2.524     2.484
     8   1 H        0.926     0.035     2.511     2.478
     9   1 H        0.925     0.039     2.467     2.456
    10   1 H        0.925     0.039     2.467     2.456
    11   1 H        0.926     0.035     2.511     2.478

Wiberg/Mayer (AO) data.
largest (>0.10) Wiberg bond orders for each atom

     #   Z sym  total        # sym  WBO       # sym  WBO       # sym  WBO
 ---------------------------------------------------------------------------
     1   6 C    3.991 --     2 C    1.443     6 C    1.443     7 H    0.970
                             4 N    0.104
     2   6 C    3.992 --     1 C    1.443     3 C    1.426     8 H    0.971
                             5 C    0.117
     3   6 C    3.983 --     4 N    1.441     2 C    1.426     9 H    0.964
                             6 C    0.117
     4   7 N    3.063 --     3 C    1.441     5 C    1.441     1 C    0.104
     5   6 C    3.983 --     4 N    1.441     6 C    1.426    10 H    0.964
                             2 C    0.117
     6   6 C    3.992 --     1 C    1.443     5 C    1.426    11 H    0.971
                             3 C    0.117
     7   1 H    0.999 --     1 C    0.970
     8   1 H    0.999 --     2 C    0.971
     9   1 H    0.999 --     3 C    0.964
    10   1 H    0.999 --     5 C    0.964
    11   1 H    0.999 --     6 C    0.971
 ---------------------------------------------------------------------------

molecular dipole:
                 x           y           z       tot (Debye)
 q only:       -0.057       0.410      -0.008
   full:       -0.114       0.819      -0.016       2.103

           -------------------------------------------------
          | TOTAL ENERGY              -16.150108060781 Eh   |
          | GRADIENT NORM               0.000743443926 Eh/α |
          | HOMO-LUMO GAP               3.210294827699 eV   |
           -------------------------------------------------

 * finished run on 2024/09/13 at 18:10:54.307
