   * xtb version 6.6.0 (conda-forge) compiled by 'runner@Mac-1676020848589.local' on 2023-02-10
          program call               : xtb THC.xyz --opt --alpb water --gfn2

   ID    Z sym.   atoms
    1    6 C      1-16, 18-22
    2    8 O      17, 23
    3    1 H      24-53

      * Solvation model:               ALPB
        Solvent                        water
        Solvent mass                       1.8000E+01 g/mol
          :  Hamiltonian                  GFN2-xTB          :
 * total energy  :   -68.4237779 Eh     change       -0.4664997E-09 Eh
 * total energy  :   -68.4401858 Eh     change       -0.1640791E-01 Eh
 * total energy  :   -68.4446074 Eh     change       -0.4421580E-02 Eh
 * total energy  :   -68.4456923 Eh     change       -0.1084913E-02 Eh
 * total energy  :   -68.4462971 Eh     change       -0.6048536E-03 Eh
 * total energy  :   -68.4466857 Eh     change       -0.3885223E-03 Eh
 * total energy  :   -68.4470404 Eh     change       -0.3546895E-03 Eh
 * total energy  :   -68.4473374 Eh     change       -0.2970046E-03 Eh
 * total energy  :   -68.4474773 Eh     change       -0.1399579E-03 Eh
 * total energy  :   -68.4476533 Eh     change       -0.1759817E-03 Eh
 * total energy  :   -68.4508918 Eh     change       -0.6955006E-04 Eh
 * total energy  :   -68.4509319 Eh     change       -0.4003438E-04 Eh
 * total energy  :   -68.4509507 Eh     change       -0.1882546E-04 Eh
 * total energy  :   -68.4509742 Eh     change       -0.2348176E-04 Eh
 * total energy  :   -68.4509895 Eh     change       -0.1528069E-04 Eh
 * total energy  :   -68.4510067 Eh     change       -0.1729511E-04 Eh
 * total energy  :   -68.4510215 Eh     change       -0.1472397E-04 Eh
 * total energy  :   -68.4510305 Eh     change       -0.9057900E-05 Eh
 * total energy  :   -68.4510354 Eh     change       -0.4839304E-05 Eh
   *** GEOMETRY OPTIMIZATION CONVERGED AFTER 44 ITERATIONS ***

 final structure:
================
53
 xtb: 6.6.0 (conda-forge)
C            6.39886010272599        0.33519107226859        2.12015651148952
C            4.90637333979908        0.64701520217602        2.09261648792100
C            4.28693793963331        0.50654716452308        0.70140183366773
C            4.23245594569107       -0.93704397813966        0.20842556742940
C            3.55751917875765       -1.05227344973897       -1.16522901535749
C            2.09957443429609       -0.69644856862321       -1.10727626678640
C            1.65191138608472        0.54941369948931       -1.50960372420400
C            0.30141401710306        0.88928772022949       -1.45793381915601
C           -0.63380568332973       -0.04659640895024       -1.02969912643730
C           -2.14006980288242        0.07512217831712       -0.95917781776937
C           -2.76330244842230        1.35611853961775       -1.42281285164975
C           -3.61300278508266        2.08050164048949       -0.70301792993693
C           -4.01759472713916        1.65964179653301        0.68245280583617
C           -3.91014243214403        0.14331347426625        0.83471353915799
C           -2.48544874945933       -0.28219666115713        0.49759559194955
C           -2.18187577599449       -1.77781273913552        0.71625784208924
O           -1.03339635068446       -2.20591068182239       -0.05899654188385
C           -0.16409482396280       -1.27215551626387       -0.54289851130493
C            1.18150749174201       -1.60188884448083       -0.59352022853341
C           -1.84231020129928       -2.03984476419391        2.18845890054121
C           -3.32591346904795       -2.69464114548533        0.27753025485092
C           -4.23981365480744        3.33661420537184       -1.22272360391802
O           -0.01585345099166        2.15802026605007       -1.84633808831694
H            6.80621508326347        0.52966881213161        3.10942802368143
H            6.58485703632220       -0.70727224151085        1.87664174712551
H            6.92873102650450        0.95740270316340        1.40237581810019
H            4.38355293286778       -0.01421453549395        2.78732357288643
H            4.75574328102171        1.67286848070926        2.43684037745610
H            4.86006934673830        1.10814376860086       -0.00805136395358
H            3.26950278000798        0.90411837613689        0.72564030771800
H            3.68127877438712       -1.54408112938660        0.92986540602243
H            5.24386464130103       -1.33788605046793        0.13034226429396
H            4.06814883137565       -0.39431965997291       -1.87001581758211
H            3.65863871331985       -2.08019246993252       -1.51913180429433
H            2.33997589916277        1.29539451669756       -1.87618943501800
H           -2.53530596493084       -0.72246987786991       -1.61027095891314
H           -2.56892722721231        1.61683893013977       -2.45642335206906
H           -3.37736399070849        2.15350350937304        1.41953225566906
H           -5.04252143226014        1.98177572815258        0.87389743055862
H           -4.61531188057070       -0.33173276864399        0.15256801489545
H           -4.16198674497169       -0.14779864755009        1.85492496293374
H           -1.80703076783846        0.29004453619946        1.14378744981148
H            1.49323876181762       -2.57158584121575       -0.23808461031813
H           -2.66952756544125       -1.74232226624202        2.82538540937703
H           -0.95457513552368       -1.47774566690928        2.47127001361488
H           -1.64115920299615       -3.09742747137782        2.33547258999701
H           -3.65642146804612       -2.44981057458303       -0.72857790807825
H           -2.96336946261123       -3.71933424436214        0.27423213042206
H           -4.16325503108155       -2.61592794497935        0.96218246228146
H           -3.86379558020473        3.58771305463888       -2.21111514215482
H           -4.03526582870620        4.16428717590420       -0.54515295151720
H           -5.32073697528195        3.21857555474476       -1.28127415032713
H           -0.94759233028634        2.34391204256661       -1.64020455229792

          :  Hamiltonian                  GFN2-xTB          :
         :: total energy             -68.451035368349 Eh    ::
         :: gradient norm              0.000358704899 Eh/a0 ::
         :: HOMO-LUMO gap              4.267269265909 eV    ::
         :: SCC energy               -69.450000264014 Eh    ::
         :: -> dispersion             -0.053935350252 Eh    ::
         :: -> Gsolv                  -0.008816632988 Eh    ::
         :: repulsion energy           0.998242882201 Eh    ::

    * Orbital Energies and Occupations

         #    Occupation            Energy/Eh            Energy/eV
      -------------------------------------------------------------
         1        2.0000           -0.7034655             -19.1423
       ...           ...                  ...                  ...
        51        2.0000           -0.4377388             -11.9115
        52        2.0000           -0.4361604             -11.8685
        53        2.0000           -0.4309616             -11.7271
        54        2.0000           -0.4288828             -11.6705
        55        2.0000           -0.4263608             -11.6019
        56        2.0000           -0.4204820             -11.4419
        57        2.0000           -0.4191059             -11.4045
        58        2.0000           -0.4125852             -11.2270
        59        2.0000           -0.4100998             -11.1594
        60        2.0000           -0.4029136             -10.9638
        61        2.0000           -0.3806120             -10.3570
        62        2.0000           -0.3718833             -10.1195
        63        2.0000           -0.3680704             -10.0157 (HOMO)
        64                         -0.2112512              -5.7484 (LUMO)
        65                         -0.2046068              -5.5676
        66                         -0.1986453              -5.4054
        67                         -0.0864385              -2.3521
        68                         -0.0077466              -0.2108
        69                          0.0406556               1.1063
        70                          0.0587949               1.5999
        71                          0.0712027               1.9375
        72                          0.0771060               2.0982
        73                          0.0803165               2.1855
        74                          0.0873823               2.3778
       ...                                ...                  ...
       122                          0.6687284              18.1970
      -------------------------------------------------------------
                  HL-Gap            0.1568193 Eh            4.2673 eV

     #   Z          covCN         q      C6AA      α(0)
     1   6 C        3.751    -0.111    22.678     6.791
     2   6 C        3.800    -0.058    21.612     6.619
     3   6 C        3.802    -0.062    21.683     6.630
     4   6 C        3.802    -0.058    21.614     6.619
     5   6 C        3.809    -0.068    21.803     6.647
     6   6 C        2.969     0.008    27.840     8.655
     7   6 C        2.926    -0.084    30.095     8.996
     8   6 C        2.845     0.131    25.136     8.217
     9   6 C        2.978    -0.067    29.668     8.935
    10   6 C        3.872    -0.007    20.663     6.464
    11   6 C        2.898    -0.077    29.923     8.969
    12   6 C        2.943     0.005    27.914     8.665
    13   6 C        3.813    -0.069    21.803     6.646
    14   6 C        3.807    -0.064    21.716     6.634
    15   6 C        3.872    -0.028    21.025     6.520
    16   6 C        3.783     0.140    18.344     6.101
    17   8 O        1.702    -0.327    19.463     5.956
    18   6 C        2.870     0.127    25.204     8.230
    19   6 C        2.922    -0.085    30.119     9.000
    20   6 C        3.756    -0.122    22.893     6.822
    21   6 C        3.755    -0.123    22.918     6.826
    22   6 C        3.759    -0.124    22.937     6.828
    23   8 O        1.659    -0.447    21.791     6.302
    24   1 H        0.925     0.036     2.504     2.475
    25   1 H        0.925     0.037     2.484     2.465
    26   1 H        0.925     0.038     2.481     2.463
    27   1 H        0.924     0.030     2.586     2.515
    28   1 H        0.924     0.031     2.578     2.511
    29   1 H        0.924     0.033     2.539     2.492
    30   1 H        0.924     0.028     2.609     2.526
    31   1 H        0.924     0.033     2.541     2.493
    32   1 H        0.924     0.040     2.451     2.448
    33   1 H        0.924     0.043     2.415     2.430
    34   1 H        0.924     0.045     2.387     2.416
    35   1 H        0.926     0.045     2.387     2.416
    36   1 H        0.923     0.040     2.450     2.448
    37   1 H        0.925     0.032     2.560     2.502
    38   1 H        0.924     0.048     2.341     2.393
    39   1 H        0.924     0.050     2.314     2.379
    40   1 H        0.925     0.045     2.385     2.415
    41   1 H        0.924     0.038     2.471     2.458
    42   1 H        0.924     0.030     2.582     2.513
    43   1 H        0.926     0.042     2.421     2.433
    44   1 H        0.925     0.053     2.289     2.366
    45   1 H        0.925     0.041     2.434     2.440
    46   1 H        0.925     0.054     2.266     2.354
    47   1 H        0.925     0.046     2.368     2.407
    48   1 H        0.925     0.056     2.242     2.341
    49   1 H        0.925     0.058     2.220     2.330
    50   1 H        0.925     0.044     2.399     2.422
    51   1 H        0.925     0.055     2.253     2.347
    52   1 H        0.925     0.056     2.247     2.344
    53   1 H        0.804     0.341     0.610     1.227

Wiberg/Mayer (AO) data.
largest (>0.10) Wiberg bond orders for each atom

     #   Z sym  total        # sym  WBO       # sym  WBO       # sym  WBO
 ---------------------------------------------------------------------------
     1   6 C    3.996 --     2 C    1.020    26 H    0.987    24 H    0.987
                            25 H    0.986
     2   6 C    3.998 --     1 C    1.020     3 C    1.007    28 H    0.979
                            27 H    0.978
     3   6 C    3.997 --     4 C    1.010     2 C    1.007    29 H    0.977
                            30 H    0.976
     4   6 C    3.996 --     3 C    1.010     5 C    0.988    31 H    0.977
                            32 H    0.974
     5   6 C    3.995 --     6 C    1.013     4 C    0.988    33 H    0.975
                            34 H    0.969
     6   6 C    3.986 --     7 C    1.426    19 C    1.400     5 C    1.013
     7   6 C    3.979 --     6 C    1.426     8 C    1.357    35 H    0.966
     8   6 C    3.938 --     9 C    1.368     7 C    1.357    23 O    1.066
     9   6 C    3.974 --     8 C    1.368    18 C    1.333    10 C    0.985
    10   6 C    3.994 --    11 C    1.013     9 C    0.985    15 C    0.968
                            36 H    0.934
    11   6 C    3.984 --    12 C    1.860    10 C    1.013    37 H    0.955
    12   6 C    3.985 --    11 C    1.860    22 C    1.027    13 C    1.011
    13   6 C    3.997 --    12 C    1.011    14 C    1.003    39 H    0.969
                            38 H    0.959
    14   6 C    3.995 --    13 C    1.003    15 C    0.997    40 H    0.975
                            41 H    0.974
    15   6 C    3.993 --    14 C    0.997    16 C    0.971    10 C    0.968
                            42 H    0.965
    16   6 C    3.931 --    21 C    0.996    20 C    0.990    15 C    0.971
                            17 O    0.914
    17   8 O    2.173 --    18 C    1.051    16 C    0.914
    18   6 C    3.936 --    19 C    1.385     9 C    1.333    17 O    1.051
    19   6 C    3.981 --     6 C    1.400    18 C    1.385    43 H    0.967
    20   6 C    3.992 --    16 C    0.990    45 H    0.985    46 H    0.984
                            44 H    0.981
    21   6 C    3.992 --    16 C    0.996    48 H    0.983    49 H    0.982
                            47 H    0.981
    22   6 C    3.994 --    12 C    1.027    50 H    0.984    51 H    0.971
                            52 H    0.969
    23   8 O    2.078 --     8 C    1.066    53 H    0.834
    24   1 H    0.999 --     1 C    0.987
    25   1 H    0.999 --     1 C    0.986
    26   1 H    0.999 --     1 C    0.987
    27   1 H    0.999 --     2 C    0.978
    28   1 H    0.999 --     2 C    0.979
    29   1 H    0.999 --     3 C    0.977
    30   1 H    0.999 --     3 C    0.976
    31   1 H    0.999 --     4 C    0.977
    32   1 H    0.998 --     4 C    0.974
    33   1 H    0.998 --     5 C    0.975
    34   1 H    0.997 --     5 C    0.969
    35   1 H    0.998 --     7 C    0.966
    36   1 H    0.998 --    10 C    0.934
    37   1 H    0.999 --    11 C    0.955
    38   1 H    0.998 --    13 C    0.959
    39   1 H    0.997 --    13 C    0.969
    40   1 H    0.998 --    14 C    0.975
    41   1 H    0.998 --    14 C    0.974
    42   1 H    0.999 --    15 C    0.965
    43   1 H    0.998 --    19 C    0.967
    44   1 H    0.997 --    20 C    0.981
    45   1 H    0.998 --    20 C    0.985
    46   1 H    0.997 --    20 C    0.984
    47   1 H    0.998 --    21 C    0.981
    48   1 H    0.997 --    21 C    0.983
    49   1 H    0.996 --    21 C    0.982
    50   1 H    0.998 --    22 C    0.984
    51   1 H    0.996 --    22 C    0.971
    52   1 H    0.996 --    22 C    0.969
    53   1 H    0.883 --    23 O    0.834
 ---------------------------------------------------------------------------

molecular dipole:
                 x           y           z       tot (Debye)
 q only:       -1.251       0.355       0.737
   full:       -1.439       0.359       0.779       4.258

           -------------------------------------------------
          | TOTAL ENERGY              -68.451035368349 Eh   |
          | GRADIENT NORM               0.000358704899 Eh/α |
          | HOMO-LUMO GAP               4.267269265909 eV   |
           -------------------------------------------------

 * finished run on 2024/09/07 at 00:23:42.140
