   * xtb version 6.6.0 (conda-forge) compiled by 'runner@Mac-1676020848589.local' on 2023-02-10
          program call               : xtb acetonitrile.xyz --chrg 1 --gfn2 --opt --alpb water

   ID    Z sym.   atoms
    1    6 C      1, 2
    2    7 N      3
    3    1 H      4-6

      * Solvation model:               ALPB
        Solvent                        water
        Solvent mass                       1.8000E+01 g/mol
          :  Hamiltonian                  GFN2-xTB          :
 * total energy  :    -8.2122733 Eh     change       -0.3957647E-08 Eh
 * total energy  :    -8.2155260 Eh     change       -0.3252734E-02 Eh
 * total energy  :    -8.2160067 Eh     change       -0.4806865E-03 Eh
 * total energy  :    -8.2160471 Eh     change       -0.4041279E-04 Eh
 * total energy  :    -8.2160518 Eh     change       -0.4734983E-05 Eh
   *** GEOMETRY OPTIMIZATION CONVERGED AFTER 5 ITERATIONS ***

 final structure:
================
6
 xtb: 6.6.0 (conda-forge)
C           -0.44496465938081        0.05219975425267       -0.08697234007632
C            0.90827222663559       -0.10879341388286        0.17373064183187
N            2.03238790752655       -0.23666688145041        0.39517378328330
H           -0.78256916789853       -0.65284205159068       -0.87006708794637
H           -1.04941230228117       -0.13406437940874        0.82087610493132
H           -0.66381400460163        1.08006697208001       -0.43274110202381

          :  Hamiltonian                  GFN2-xTB          :
         :: total energy              -8.216051830916 Eh    ::
         :: gradient norm              0.000707237952 Eh/a0 ::
         :: HOMO-LUMO gap              6.359407478677 eV    ::
         :: SCC energy                -8.391456010806 Eh    ::
         :: -> dispersion             -0.001242807200 Eh    ::
         :: -> Gsolv                  -0.126365758415 Eh    ::
         :: repulsion energy           0.175404097658 Eh    ::

    * Orbital Energies and Occupations

         #    Occupation            Energy/Eh            Energy/eV
      -------------------------------------------------------------
         1        2.0000           -0.7361124             -20.0306
         2        2.0000           -0.7060539             -19.2127
         3        2.0000           -0.6030549             -16.4100
         4        2.0000           -0.5956322             -16.2080
         5        2.0000           -0.5955881             -16.2068
         6        1.7284           -0.5221774             -14.2092
         7        1.7088           -0.5220851             -14.2067
         8        1.5628           -0.5214798             -14.1902 (HOMO)
         9                         -0.2877759              -7.8308 (LUMO)
        10                         -0.2876888              -7.8284
        11                          0.0944116               2.5691
        12                          0.1548261               4.2130
        13                          0.1663797               4.5274
        14                          0.1678333               4.5670
        15                          1.0646613              28.9709
      -------------------------------------------------------------
                  HL-Gap            0.2337039 Eh            6.3594 eV

     #   Z          covCN         q      C6AA      α(0)
     1   6 C        3.748    -0.151    23.485     6.912
     2   6 C        1.891     0.207    26.236     8.273
     3   7 N        0.911     0.012    21.044     6.635
     4   1 H        0.922     0.310     0.679     1.289
     5   1 H        0.922     0.312     0.675     1.285
     6   1 H        0.922     0.310     0.680     1.290

Wiberg/Mayer (AO) data.
largest (>0.10) Wiberg bond orders for each atom

     #   Z sym  total        # sym  WBO       # sym  WBO       # sym  WBO
 ---------------------------------------------------------------------------
     1   6 C    3.503 --     2 C    1.222     6 H    0.752     4 H    0.751
                             5 H    0.748
     2   6 C    3.848 --     3 N    2.542     1 C    1.222
     3   7 N    2.642 --     2 C    2.542
     4   1 H    0.811 --     1 C    0.751
     5   1 H    0.808 --     1 C    0.748
     6   1 H    0.812 --     1 C    0.752
 ---------------------------------------------------------------------------

molecular dipole:
                 x           y           z       tot (Debye)
 q only:       -0.937       0.108      -0.178
   full:       -1.016       0.114      -0.197       2.647

           -------------------------------------------------
          | TOTAL ENERGY               -8.216051830916 Eh   |
          | GRADIENT NORM               0.000707237952 Eh/α |
          | HOMO-LUMO GAP               6.359407478677 eV   |
           -------------------------------------------------

 * finished run on 2024/10/22 at 11:56:20.520
