   * xtb version 6.6.0 (conda-forge) compiled by 'runner@Mac-1676020848589.local' on 2023-02-10
          program call               : xtb input_molecule.xyz --gfn2 --chrg 0 --opt

   ID    Z sym.   atoms
    1    6 C      1-4
    2    1 H      5-14

          :  Hamiltonian                  GFN2-xTB          :
 * total energy  :   -13.6611852 Eh     change       -0.3246292E-10 Eh
 * total energy  :   -13.6640177 Eh     change       -0.2832524E-02 Eh
 * total energy  :   -13.6641558 Eh     change       -0.1381219E-03 Eh
 * total energy  :   -13.6641701 Eh     change       -0.1426997E-04 Eh
 * total energy  :   -13.6641749 Eh     change       -0.4846099E-05 Eh
   *** GEOMETRY OPTIMIZATION CONVERGED AFTER 5 ITERATIONS ***

 final structure:
================
14
 xtb: 6.6.0 (conda-forge)
C           -1.58230909155499        0.47291666284224        0.02470005115036
C           -0.55336573042410       -0.30694984801758       -0.78666370870890
C            0.63462115491149       -0.78353697575532        0.05057620524310
C            1.52032061224341        0.35864410979277        0.53657651878735
H           -1.15897971250621        1.39873161870198        0.40544799591403
H           -1.92983672987081       -0.12034065290289        0.86818725413667
H           -2.44078946783517        0.72341981482337       -0.59475938521221
H           -0.18797371649055        0.31739409289843       -1.60532667719361
H           -1.04111350453527       -1.17922478332666       -1.22860213140006
H            0.26469000807016       -1.34693780224880        0.91037468450719
H            1.23807467896748       -1.46375713479135       -0.55540498374861
H            2.38937258399835       -0.03372652865856        1.06027805094430
H            0.97954583026914        1.00864556493124        1.21948945616193
H            1.86764308475708        0.95462186171113       -0.30507333058154

          :  Hamiltonian                  GFN2-xTB          :
         :: total energy             -13.664174916565 Eh    ::
         :: gradient norm              0.000737812248 Eh/a0 ::
         :: HOMO-LUMO gap             14.237914789870 eV    ::
         :: SCC energy               -13.874823647793 Eh    ::
         :: -> dispersion             -0.006300585745 Eh    ::
         :: repulsion energy           0.210641636230 Eh    ::

    * Orbital Energies and Occupations

         #    Occupation            Energy/Eh            Energy/eV
      -------------------------------------------------------------
         1        2.0000           -0.6177432             -16.8096
         2        2.0000           -0.5960017             -16.2180
         3        2.0000           -0.5730318             -15.5930
         4        2.0000           -0.5475856             -14.9006
         5        2.0000           -0.5064668             -13.7817
         6        2.0000           -0.5057661             -13.7626
         7        2.0000           -0.4849641             -13.1965
         8        2.0000           -0.4661036             -12.6833
         9        2.0000           -0.4620281             -12.5724
        10        2.0000           -0.4481637             -12.1952
        11        2.0000           -0.4258014             -11.5866
        12        2.0000           -0.4237383             -11.5305
        13        2.0000           -0.4220324             -11.4841 (HOMO)
        14                          0.1012013               2.7538 (LUMO)
        15                          0.1111617               3.0249
        16                          0.1368235               3.7232
        17                          0.1483295               4.0363
        18                          0.1498149               4.0767
        19                          0.1574533               4.2845
        20                          0.2025750               5.5123
        21                          0.2068839               5.6296
        22                          0.2341208               6.3708
        23                          0.2486294               6.7656
        24                          0.2782019               7.5703
       ...                                ...                  ...
        26                          0.3005482               8.1783
      -------------------------------------------------------------
                  HL-Gap            0.5232337 Eh           14.2379 eV

     #   Z          covCN         q      C6AA      α(0)
     1   6 C        3.751    -0.101    22.493     6.763
     2   6 C        3.800    -0.053    21.520     6.605
     3   6 C        3.800    -0.053    21.520     6.605
     4   6 C        3.751    -0.101    22.493     6.763
     5   1 H        0.925     0.035     2.512     2.479
     6   1 H        0.925     0.033     2.551     2.498
     7   1 H        0.925     0.030     2.585     2.514
     8   1 H        0.924     0.030     2.590     2.517
     9   1 H        0.924     0.026     2.643     2.542
    10   1 H        0.924     0.030     2.590     2.517
    11   1 H        0.924     0.026     2.643     2.542
    12   1 H        0.925     0.030     2.585     2.514
    13   1 H        0.925     0.035     2.512     2.479
    14   1 H        0.925     0.033     2.551     2.498

Wiberg/Mayer (AO) data.
largest (>0.10) Wiberg bond orders for each atom

     #   Z sym  total        # sym  WBO       # sym  WBO       # sym  WBO
 ---------------------------------------------------------------------------
     1   6 C    3.997 --     2 C    1.020     6 H    0.988     7 H    0.988
                             5 H    0.986
     2   6 C    3.998 --     1 C    1.020     3 C    1.008     9 H    0.979
                             8 H    0.978
     3   6 C    3.998 --     4 C    1.020     2 C    1.008    11 H    0.979
                            10 H    0.978
     4   6 C    3.997 --     3 C    1.020    14 H    0.988    12 H    0.988
                            13 H    0.986
     5   1 H    0.999 --     1 C    0.986
     6   1 H    0.999 --     1 C    0.988
     7   1 H    0.999 --     1 C    0.988
     8   1 H    0.999 --     2 C    0.978
     9   1 H    0.999 --     2 C    0.979
    10   1 H    0.999 --     3 C    0.978
    11   1 H    0.999 --     3 C    0.979
    12   1 H    0.999 --     4 C    0.988
    13   1 H    0.999 --     4 C    0.986
    14   1 H    0.999 --     4 C    0.988
 ---------------------------------------------------------------------------

molecular dipole:
                 x           y           z       tot (Debye)
 q only:       -0.001       0.013       0.009
   full:       -0.001       0.010       0.007       0.031

           -------------------------------------------------
          | TOTAL ENERGY              -13.664174916565 Eh   |
          | GRADIENT NORM               0.000737812248 Eh/α |
          | HOMO-LUMO GAP              14.237914789870 eV   |
           -------------------------------------------------

 * finished run on 2024/09/04 at 21:16:18.560
