   * xtb version 6.6.0 (conda-forge) compiled by 'runner@Mac-1676020848589.local' on 2023-02-10
          program call               : xtb input_molecule.xyz --gfn2 --chrg 0 --opt

   ID    Z sym.   atoms
    1    6 C      1-6
    2    1 H      7-12

          :  Hamiltonian                  GFN2-xTB          :
 * total energy  :   -15.8783830 Eh     change       -0.1174527E-10 Eh
 * total energy  :   -15.8796244 Eh     change       -0.1241433E-02 Eh
 * total energy  :   -15.8796406 Eh     change       -0.1618266E-04 Eh
 * total energy  :   -15.8796407 Eh     change       -0.8175196E-07 Eh
   *** GEOMETRY OPTIMIZATION CONVERGED AFTER 4 ITERATIONS ***

 final structure:
================
12
 xtb: 6.6.0 (conda-forge)
C           -1.36385250163524        0.23503464387376        0.04251869844065
C           -0.88524133659616       -1.06418052609368        0.03180781384590
C            0.47861170451333       -1.29921523595042       -0.01071354859171
C            1.36385250162846       -0.23503464401224       -0.04251869844037
C            0.88524133669627        1.06418052599050       -0.03180781384895
C           -0.47861170451364        1.29921523595643        0.01071354859146
H           -2.42813981533285        0.41844315354299        0.07569957653627
H           -1.57604107321656       -1.89461821909648        0.05662556206019
H            0.85209840268135       -2.31306169190016       -0.01908116915893
H            2.42813981542892       -0.41844315329676       -0.07569957654067
H            1.57604107297857        1.89461821923180       -0.05662556205214
H           -0.85209840263245        2.31306169175427        0.01908116915831

          :  Hamiltonian                  GFN2-xTB          :
         :: total energy             -15.879640652475 Eh    ::
         :: gradient norm              0.000045284718 Eh/a0 ::
         :: HOMO-LUMO gap              4.934101102025 eV    ::
         :: SCC energy               -16.196505098040 Eh    ::
         :: -> dispersion             -0.008019481724 Eh    ::
         :: repulsion energy           0.316857660948 Eh    ::

    * Orbital Energies and Occupations

         #    Occupation            Energy/Eh            Energy/eV
      -------------------------------------------------------------
         1        2.0000           -0.6416529             -17.4603
       ...           ...                  ...                  ...
         3        2.0000           -0.6114898             -16.6395
         4        2.0000           -0.5690000             -15.4833
         5        2.0000           -0.5689999             -15.4833
         6        2.0000           -0.5311796             -14.4541
         7        2.0000           -0.4950011             -13.4697
         8        2.0000           -0.4894015             -13.3173
         9        2.0000           -0.4763493             -12.9621
        10        2.0000           -0.4763493             -12.9621
        11        2.0000           -0.4747524             -12.9187
        12        2.0000           -0.4213980             -11.4668
        13        2.0000           -0.4213978             -11.4668
        14        2.0000           -0.4025243             -10.9532
        15        2.0000           -0.4025242             -10.9532 (HOMO)
        16                         -0.2211993              -6.0191 (LUMO)
        17                         -0.2211992              -6.0191
        18                         -0.0899306              -2.4471
        19                          0.1179756               3.2103
        20                          0.1376651               3.7461
        21                          0.1734438               4.7196
        22                          0.1734441               4.7197
        23                          0.2026640               5.5148
        24                          0.2026640               5.5148
        25                          0.4132016              11.2438
        26                          0.4132019              11.2438
       ...                                ...                  ...
        30                          0.6740585              18.3421
      -------------------------------------------------------------
                  HL-Gap            0.1813249 Eh            4.9341 eV

     #   Z          covCN         q      C6AA      α(0)
     1   6 C        2.920    -0.029    28.718     8.788
     2   6 C        2.920    -0.029    28.718     8.788
     3   6 C        2.920    -0.029    28.718     8.788
     4   6 C        2.920    -0.029    28.718     8.788
     5   6 C        2.920    -0.029    28.718     8.788
     6   6 C        2.920    -0.029    28.718     8.788
     7   1 H        0.926     0.029     2.605     2.524
     8   1 H        0.926     0.029     2.605     2.524
     9   1 H        0.926     0.029     2.605     2.524
    10   1 H        0.926     0.029     2.605     2.524
    11   1 H        0.926     0.029     2.605     2.524
    12   1 H        0.926     0.029     2.605     2.524

Wiberg/Mayer (AO) data.
largest (>0.10) Wiberg bond orders for each atom

     #   Z sym  total        # sym  WBO       # sym  WBO       # sym  WBO
 ---------------------------------------------------------------------------
     1   6 C    3.993 --     6 C    1.441     2 C    1.441     7 H    0.972
                             4 C    0.114
     2   6 C    3.993 --     1 C    1.441     3 C    1.441     8 H    0.972
                             5 C    0.114
     3   6 C    3.993 --     4 C    1.441     2 C    1.441     9 H    0.972
                             6 C    0.114
     4   6 C    3.993 --     3 C    1.441     5 C    1.441    10 H    0.972
                             1 C    0.114
     5   6 C    3.993 --     4 C    1.441     6 C    1.441    11 H    0.972
                             2 C    0.114
     6   6 C    3.993 --     1 C    1.441     5 C    1.441    12 H    0.972
                             3 C    0.114
     7   1 H    0.999 --     1 C    0.972
     8   1 H    0.999 --     2 C    0.972
     9   1 H    0.999 --     3 C    0.972
    10   1 H    0.999 --     4 C    0.972
    11   1 H    0.999 --     5 C    0.972
    12   1 H    0.999 --     6 C    0.972
 ---------------------------------------------------------------------------

molecular dipole:
                 x           y           z       tot (Debye)
 q only:        0.000      -0.000      -0.000
   full:        0.000      -0.000      -0.000       0.000

           -------------------------------------------------
          | TOTAL ENERGY              -15.879640652475 Eh   |
          | GRADIENT NORM               0.000045284718 Eh/α |
          | HOMO-LUMO GAP               4.934101102025 eV   |
           -------------------------------------------------

 * finished run on 2024/09/04 at 21:36:16.347
