   * xtb version 6.6.0 (conda-forge) compiled by 'runner@Mac-1676020848589.local' on 2023-02-10
          program call               : xtb input_molecule.xyz --gfn2 --chrg -1 --opt --alpb acetonitrile

   ID    Z sym.   atoms
    1    6 C      1
    2    7 N      2
    3    1 H      3

      * Solvation model:               ALPB
        Solvent                        acetonitrile
        Solvent mass                       4.1050E+01 g/mol
          :  Hamiltonian                  GFN2-xTB          :
 * total energy  :    -5.6469503 Eh     change       -0.7016610E-13 Eh
 * total energy  :    -5.6612294 Eh     change       -0.1427916E-01 Eh
 * total energy  :    -5.6614132 Eh     change       -0.1837222E-03 Eh
 * total energy  :    -5.6614262 Eh     change       -0.1309820E-04 Eh
 * total energy  :    -5.6614263 Eh     change       -0.4300352E-07 Eh
   *** GEOMETRY OPTIMIZATION CONVERGED AFTER 5 ITERATIONS ***

 final structure:
================
3
 xtb: 6.6.0 (conda-forge)
C           -0.05555747584999        0.08575713757257        0.00000000000000
N            1.16429000158574       -0.14699747096015        0.00000000000000
H           -1.10873252573575        0.28644033338758       -0.00000000000000

          :  Hamiltonian                  GFN2-xTB          :
         :: total energy              -5.661426291617 Eh    ::
         :: gradient norm              0.000127614604 Eh/a0 ::
         :: HOMO-LUMO gap              0.000000054315 eV    ::
         :: SCC energy                -5.732241058616 Eh    ::
         :: -> dispersion             -0.000931210287 Eh    ::
         :: -> Gsolv                  -0.103908311674 Eh    ::
         :: repulsion energy           0.070814768308 Eh    ::

    * Orbital Energies and Occupations

         #    Occupation            Energy/Eh            Energy/eV
      -------------------------------------------------------------
         1        2.0000           -0.4657601             -12.6740
         2        2.0000           -0.4262150             -11.5979
         3        2.0000           -0.2902424              -7.8979
         4        2.0000           -0.2902422              -7.8979
         5        2.0000           -0.2899485              -7.8899
         6        0.5000           -0.0745677              -2.0291 (HOMO)
         7        0.5000           -0.0745677              -2.0291 (LUMO)
         8                          0.1827733               4.9735
         9                          0.8934422              24.3118
      -------------------------------------------------------------
                  HL-Gap            0.0000000 Eh            0.0000 eV

     #   Z          covCN         q      C6AA      α(0)
     1   6 C        1.837    -0.149    35.391     9.611
     2   7 N        0.910    -0.669    39.021     9.035
     3   1 H        0.926    -0.182     9.568     4.837

Wiberg/Mayer (AO) data.
largest (>0.10) Wiberg bond orders for each atom

     #   Z sym  total        # sym  WBO       # sym  WBO       # sym  WBO
 ---------------------------------------------------------------------------
     1   6 C    3.030 --     2 N    2.103     3 H    0.927
     2   7 N    2.142 --     1 C    2.103
     3   1 H    0.967 --     1 C    0.927
 ---------------------------------------------------------------------------

molecular dipole:
                 x           y           z       tot (Debye)
 q only:       -1.073       0.063      -0.000
   full:       -1.676       0.178       0.000       4.283

           -------------------------------------------------
          | TOTAL ENERGY               -5.661426291617 Eh   |
          | GRADIENT NORM               0.000127614604 Eh/α |
          | HOMO-LUMO GAP               0.000000054315 eV   |
           -------------------------------------------------

 * finished run on 2024/09/04 at 15:51:39.034
