   * xtb version 6.6.0 (conda-forge) compiled by 'runner@Mac-1676020848589.local' on 2023-02-10
          program call               : xtb input_molecule.xyz --gfn2 --chrg 0 --opt

   ID    Z sym.   atoms
    1    6 C      1
    2    1 H      2-5

          :  Hamiltonian                  GFN2-xTB          :
 * total energy  :    -4.1733974 Eh     change        0.8881784E-15 Eh
 * total energy  :    -4.1751847 Eh     change       -0.1787292E-02 Eh
 * total energy  :    -4.1752182 Eh     change       -0.3356354E-04 Eh
 * total energy  :    -4.1752184 Eh     change       -0.2119104E-06 Eh
   *** GEOMETRY OPTIMIZATION CONVERGED AFTER 4 ITERATIONS ***

 final structure:
================
5
 xtb: 6.6.0 (conda-forge)
C           -0.00000023417431       -0.00000033311363       -0.00000095664280
H           -0.66291283113897        0.85150365733595       -0.08332156666665
H           -0.39866445562186       -0.82528583896875       -0.57569702778508
H            0.08353034433802       -0.29189429760905        1.03888032055281
H            0.97804717659712        0.26567681235549       -0.37986076945828

          :  Hamiltonian                  GFN2-xTB          :
         :: total energy              -4.175218442538 Eh    ::
         :: gradient norm              0.000237506987 Eh/a0 ::
         :: HOMO-LUMO gap             17.344279043882 eV    ::
         :: SCC energy                -4.247369076851 Eh    ::
         :: -> dispersion             -0.000661040243 Eh    ::
         :: repulsion energy           0.072150628716 Eh    ::

    * Orbital Energies and Occupations

         #    Occupation            Energy/Eh            Energy/eV
      -------------------------------------------------------------
         1        2.0000           -0.5818053             -15.8317
         2        2.0000           -0.4674451             -12.7198
         3        2.0000           -0.4674450             -12.7198
         4        2.0000           -0.4674449             -12.7198 (HOMO)
         5                          0.1699457               4.6245 (LUMO)
         6                          0.2289725               6.2307
         7                          0.2289729               6.2307
         8                          0.2289734               6.2307
      -------------------------------------------------------------
                  HL-Gap            0.6373905 Eh           17.3443 eV

     #   Z          covCN         q      C6AA      α(0)
     1   6 C        3.702    -0.156    23.686     6.959
     2   1 H        0.925     0.039     2.463     2.454
     3   1 H        0.925     0.039     2.463     2.454
     4   1 H        0.925     0.039     2.463     2.454
     5   1 H        0.925     0.039     2.463     2.454

Wiberg/Mayer (AO) data.
largest (>0.10) Wiberg bond orders for each atom

     #   Z sym  total        # sym  WBO       # sym  WBO       # sym  WBO
 ---------------------------------------------------------------------------
     1   6 C    3.994 --     3 H    0.998     5 H    0.998     2 H    0.998
                             4 H    0.998
     2   1 H    0.998 --     1 C    0.998
     3   1 H    0.998 --     1 C    0.998
     4   1 H    0.998 --     1 C    0.998
     5   1 H    0.998 --     1 C    0.998
 ---------------------------------------------------------------------------

molecular dipole:
                 x           y           z       tot (Debye)
 q only:        0.000       0.000       0.000
   full:        0.000       0.000       0.000       0.000

           -------------------------------------------------
          | TOTAL ENERGY               -4.175218442538 Eh   |
          | GRADIENT NORM               0.000237506987 Eh/α |
          | HOMO-LUMO GAP              17.344279043882 eV   |
           -------------------------------------------------

 * finished run on 2024/09/04 at 23:46:07.220
