   * xtb version 6.6.0 (conda-forge) compiled by 'runner@Mac-1676020848589.local' on 2023-02-10
          program call               : xtb input_molecule.xyz --opt

   ID    Z sym.   atoms
    1    6 C      1
    2    7 N      2
    3    1 H      3

          :  Hamiltonian                  GFN2-xTB          :
 * total energy  :    -5.5031672 Eh     change       -0.3407941E-11 Eh
 * total energy  :    -5.5040179 Eh     change       -0.8507463E-03 Eh
 * total energy  :    -5.5040660 Eh     change       -0.4809210E-04 Eh
 * total energy  :    -5.5040662 Eh     change       -0.1843324E-06 Eh
   *** GEOMETRY OPTIMIZATION CONVERGED AFTER 4 ITERATIONS ***

 final structure:
================
3
 xtb: 6.6.0 (conda-forge)
C           -0.02535592969226        0.00711501037445       -0.00000000000000
N            1.06993747892635       -0.29987571948119        0.00000000000000
H           -1.04458154923410        0.29276070910674       -0.00000000000000

          :  Hamiltonian                  GFN2-xTB          :
         :: total energy              -5.504066173989 Eh    ::
         :: gradient norm              0.000525365326 Eh/a0 ::
         :: HOMO-LUMO gap              5.951350186972 eV    ::
         :: SCC energy                -5.632569114694 Eh    ::
         :: -> dispersion             -0.000496467565 Eh    ::
         :: repulsion energy           0.128502941621 Eh    ::

    * Orbital Energies and Occupations

         #    Occupation            Energy/Eh            Energy/eV
      -------------------------------------------------------------
         1        2.0000           -0.6644558             -18.0808
         2        2.0000           -0.5757547             -15.6671
         3        2.0000           -0.5064904             -13.7823
         4        2.0000           -0.5064904             -13.7823
         5        2.0000           -0.4498726             -12.2417 (HOMO)
         6                         -0.2311645              -6.2903 (LUMO)
         7                         -0.2311645              -6.2903
         8                          0.1196696               3.2564
         9                          1.1401900              31.0261
      -------------------------------------------------------------
                  HL-Gap            0.2187081 Eh            5.9514 eV

     #   Z          covCN         q      C6AA      α(0)
     1   6 C        1.838     0.075    29.261     8.739
     2   7 N        0.910    -0.158    24.420     7.147
     3   1 H        0.927     0.083     1.952     2.185

Wiberg/Mayer (AO) data.
largest (>0.10) Wiberg bond orders for each atom

     #   Z sym  total        # sym  WBO       # sym  WBO       # sym  WBO
 ---------------------------------------------------------------------------
     1   6 C    3.933 --     2 N    2.985     3 H    0.948
     2   7 N    3.030 --     1 C    2.985
     3   1 H    0.993 --     1 C    0.948
 ---------------------------------------------------------------------------

molecular dipole:
                 x           y           z       tot (Debye)
 q only:       -0.486       0.136      -0.000
   full:       -0.993       0.278      -0.000       2.621

           -------------------------------------------------
          | TOTAL ENERGY               -5.504066173989 Eh   |
          | GRADIENT NORM               0.000525365326 Eh/α |
          | HOMO-LUMO GAP               5.951350186972 eV   |
           -------------------------------------------------

 * finished run on 2024/09/04 at 10:17:53.955
