   * xtb version 6.6.0 (conda-forge) compiled by 'runner@Mac-1676020848589.local' on 2023-02-10
          program call               : xtb input_molecule.xyz --gfn2 --chrg 0 --opt --alpb water

   ID    Z sym.   atoms
    1    6 C      1-4, 7-12, 14, 17, 18, 20, 22, 23, 25-27
    2    7 N      5, 16, 19
    3    8 O      6, 15, 21, 28, 29
    4   17 Cl     13
    5   16 S      24
    6    1 H      30-47

      * Solvation model:               ALPB
        Solvent                        water
        Solvent mass                       1.8000E+01 g/mol
          :  Hamiltonian                  GFN2-xTB          :
 * total energy  :   -86.7441447 Eh     change       -0.3146752E-08 Eh
 * total energy  :   -86.7891245 Eh     change       -0.4497986E-01 Eh
 * total energy  :   -86.8028143 Eh     change       -0.1368980E-01 Eh
 * total energy  :   -86.8052934 Eh     change       -0.2479076E-02 Eh
 * total energy  :   -86.8062603 Eh     change       -0.9668456E-03 Eh
 * total energy  :   -86.8067896 Eh     change       -0.5293801E-03 Eh
 * total energy  :   -86.8072437 Eh     change       -0.4540478E-03 Eh
 * total energy  :   -86.8076140 Eh     change       -0.3702714E-03 Eh
 * total energy  :   -86.8078939 Eh     change       -0.2799485E-03 Eh
 * total energy  :   -86.8081140 Eh     change       -0.2201050E-03 Eh
 * total energy  :   -86.8140186 Eh     change       -0.1922713E-04 Eh
 * total energy  :   -86.8140344 Eh     change       -0.1582435E-04 Eh
 * total energy  :   -86.8140470 Eh     change       -0.1257778E-04 Eh
 * total energy  :   -86.8140608 Eh     change       -0.1384659E-04 Eh
 * total energy  :   -86.8140750 Eh     change       -0.1417921E-04 Eh
 * total energy  :   -86.8140861 Eh     change       -0.1110498E-04 Eh
 * total energy  :   -86.8140936 Eh     change       -0.7532055E-05 Eh
 * total energy  :   -86.8140991 Eh     change       -0.5499010E-05 Eh
 * total energy  :   -86.8141036 Eh     change       -0.4511941E-05 Eh
   *** GEOMETRY OPTIMIZATION CONVERGED AFTER 91 ITERATIONS ***

 final structure:
================
47
 xtb: 6.6.0 (conda-forge)
C            0.23712476542218        2.95252802118416        0.23806144636547
C            1.61714053701031        2.43209004134636        0.11459257537174
C            2.16691077044895        1.16748261282504        0.08958212903517
C            3.57101928373598        1.41262335164337       -0.04057183643734
N            3.80501854361279        2.69865226667111       -0.08815895551819
O            2.60592182350252        3.32863416856047        0.01205853411168
C            4.63720781638570        0.41841124759016       -0.12411153330022
C            5.73234340506555        0.50020768881886        0.73111099183519
C            6.73664495616598       -0.44795018106179        0.68379677463416
C            6.66243474328131       -1.49093828535859       -0.22425621277141
C            5.58992748428374       -1.57970402501325       -1.09514526977829
C            4.58849560542426       -0.62749959701858       -1.04155440165275
Cl           3.27609282449199       -0.73334515531320       -2.17838040266515
C            1.54351956338519       -0.15036909642308        0.27164411568702
O            2.13382036726453       -1.10648943227256        0.75990704458748
N            0.25402755090555       -0.22038305971514       -0.13300340499674
C           -0.52845799359564       -1.40120759840747        0.02139951752792
C           -1.84614483593742       -1.27374382654481        0.83336103333666
N           -2.56030257104443       -1.73307994541262       -0.33419692965486
C           -1.46945582721424       -1.74278755443343       -1.14866920213334
O           -1.34419218792667       -1.94101041536671       -2.33129560724453
C           -3.89534280307415       -1.23890397841905       -0.51177249588313
C           -3.83743579891273        0.27329998524403       -0.13554502833217
S           -2.49127605658912        0.39404720447261        1.16279982845431
C           -3.41543157866787        1.09234121169689       -1.34751887577917
C           -5.13157168420384        0.79597048315336        0.46428372333421
C           -4.84933354093639       -2.02187077148067        0.38577873993981
O           -4.52601192329583       -2.52774203244842        1.43437969542113
O           -6.05710464285120       -2.08041664366031       -0.12485803560290
H           -0.24969677780273        2.95610130896188       -0.73677053915876
H           -0.34739450991819        2.34804224889547        0.92788981084674
H            0.28242368212958        3.97821343599827        0.59386452737703
H            5.77440547466464        1.31637463735051        1.43418591304840
H            7.57576671825269       -0.37292205567620        1.35630546571725
H            7.43976290364800       -2.23693711692792       -0.26329364186911
H            5.52644558723845       -2.37928226063992       -1.81563187641709
H           -0.19512633286711        0.59840797553091       -0.51554643789578
H            0.13376476096834       -2.20758025288097        0.34611760562579
H           -1.95548184774776       -1.89091430612164        1.72439182450032
H           -4.20697137980822       -1.35696815051179       -1.55209636317945
H           -2.54716639010712        0.65180850392720       -1.83534391001058
H           -4.22982234115363        1.13368631009108       -2.06695408301985
H           -3.17079506033275        2.10482259601454       -1.03845657746101
H           -5.04024484954420        1.86229042475229        0.65064306792610
H           -5.95688190784931        0.62450057945483       -0.22271689103322
H           -5.34544001319875        0.30281474115122        1.40995101542761
H           -6.69303631269718       -2.58110530423130        0.42624313170956

          :  Hamiltonian                  GFN2-xTB          :
         :: total energy             -86.814103634641 Eh    ::
         :: gradient norm              0.000252710446 Eh/a0 ::
         :: HOMO-LUMO gap              3.085743780751 eV    ::
         :: SCC energy               -87.805374831939 Eh    ::
         :: -> dispersion             -0.061428497963 Eh    ::
         :: -> Gsolv                  -0.044862693707 Eh    ::
         :: repulsion energy           0.990680869542 Eh    ::

    * Orbital Energies and Occupations

         #    Occupation            Energy/Eh            Energy/eV
      -------------------------------------------------------------
         1        2.0000           -1.0703703             -29.1263
       ...           ...                  ...                  ...
        64        2.0000           -0.4519759             -12.2989
        65        2.0000           -0.4488451             -12.2137
        66        2.0000           -0.4485727             -12.2063
        67        2.0000           -0.4410679             -12.0021
        68        2.0000           -0.4308144             -11.7231
        69        2.0000           -0.4267468             -11.6124
        70        2.0000           -0.4260424             -11.5932
        71        2.0000           -0.4221071             -11.4861
        72        2.0000           -0.4218532             -11.4792
        73        2.0000           -0.4182108             -11.3801
        74        2.0000           -0.4134233             -11.2498
        75        2.0000           -0.4030953             -10.9688
        76        2.0000           -0.3805656             -10.3557 (HOMO)
        77                         -0.2671667              -7.2700 (LUMO)
        78                         -0.2639729              -7.1831
        79                         -0.2630022              -7.1567
        80                         -0.2619946              -7.1292
        81                         -0.2392584              -6.5106
        82                         -0.2328503              -6.3362
        83                         -0.2241224              -6.0987
        84                         -0.1736553              -4.7254
        85                         -0.1566325              -4.2622
        86                         -0.1495105              -4.0684
        87                         -0.1080916              -2.9413
       ...                                ...                  ...
       144                          0.6966223              18.9561
      -------------------------------------------------------------
                  HL-Gap            0.1133990 Eh            3.0857 eV

     #   Z          covCN         q      C6AA      α(0)
     1   6 C        3.753    -0.151    23.478     6.909
     2   6 C        3.011     0.146    24.819     8.172
     3   6 C        3.010    -0.074    29.837     8.960
     4   6 C        3.045     0.096    25.833     8.336
     5   7 N        1.944    -0.171    25.495     7.487
     6   8 O        1.821    -0.123    16.142     5.426
     7   6 C        3.002     0.005    27.897     8.664
     8   6 C        2.929    -0.029    28.731     8.790
     9   6 C        2.918    -0.034    28.836     8.806
    10   6 C        2.923    -0.029    28.732     8.790
    11   6 C        2.956    -0.041    29.007     8.834
    12   6 C        2.893     0.102    25.750     8.320
    13  17 Cl       0.961    -0.215   105.953    15.748
    14   6 C        2.757     0.287    22.143     7.706
    15   8 O        0.859    -0.509    23.975     6.565
    16   7 N        2.692    -0.170    24.677     7.378
    17   6 C        3.996     0.018    20.191     6.384
    18   6 C        4.128     0.076    19.242     6.230
    19   7 N        3.017    -0.116    23.522     7.203
    20   6 C        3.087     0.285    22.114     7.708
    21   8 O        0.856    -0.440    22.491     6.358
    22   6 C        3.842     0.021    20.195     6.393
    23   6 C        3.894     0.069    19.377     6.258
    24  16 S        2.136    -0.199   149.533    20.581
    25   6 C        3.789    -0.126    22.933     6.820
    26   6 C        3.790    -0.129    22.986     6.828
    27   6 C        2.691     0.373    20.678     7.442
    28   8 O        0.856    -0.460    22.925     6.419
    29   8 O        1.659    -0.393    20.710     6.143
    30   1 H        0.925     0.105     1.743     2.064
    31   1 H        0.925     0.102     1.769     2.080
    32   1 H        0.925     0.108     1.712     2.046
    33   1 H        0.926     0.070     2.084     2.257
    34   1 H        0.926     0.075     2.028     2.227
    35   1 H        0.926     0.076     2.025     2.225
    36   1 H        0.926     0.070     2.089     2.260
    37   1 H        0.860     0.222     1.000     1.567
    38   1 H        0.924     0.093     1.852     2.128
    39   1 H        0.925     0.073     2.055     2.242
    40   1 H        0.924     0.101     1.778     2.085
    41   1 H        0.925     0.043     2.415     2.430
    42   1 H        0.925     0.073     2.056     2.242
    43   1 H        0.925     0.080     1.979     2.200
    44   1 H        0.925     0.082     1.961     2.190
    45   1 H        0.925     0.075     2.031     2.229
    46   1 H        0.925     0.053     2.284     2.363
    47   1 H        0.803     0.434     0.427     1.026

Wiberg/Mayer (AO) data.
largest (>0.10) Wiberg bond orders for each atom

     #   Z sym  total        # sym  WBO       # sym  WBO       # sym  WBO
 ---------------------------------------------------------------------------
     1   6 C    3.974 --     2 C    1.037    32 H    0.968    31 H    0.959
                            30 H    0.945
     2   6 C    3.916 --     3 C    1.480     6 O    1.169     1 C    1.037
                             5 N    0.143
     3   6 C    3.971 --     2 C    1.480     4 C    1.218    14 C    1.018
     4   6 C    3.976 --     5 N    1.569     3 C    1.218     7 C    1.037
     5   7 N    2.937 --     4 C    1.569     6 O    1.076     2 C    0.143
     6   8 O    2.451 --     2 C    1.169     5 N    1.076
     7   6 C    3.987 --     8 C    1.385    12 C    1.366     4 C    1.037
                            10 C    0.105
     8   6 C    3.985 --     9 C    1.448     7 C    1.385    33 H    0.966
                            11 C    0.107
     9   6 C    3.988 --     8 C    1.448    10 C    1.433    34 H    0.965
    10   6 C    3.985 --    11 C    1.434     9 C    1.433    35 H    0.966
                             7 C    0.105
    11   6 C    3.985 --    10 C    1.434    12 C    1.417    36 H    0.965
                             8 C    0.107
    12   6 C    3.903 --    11 C    1.417     7 C    1.366    13 Cl   0.946
    13  17 Cl   1.080 --    12 C    0.946
    14   6 C    3.945 --    15 O    1.619    16 N    1.236     3 C    1.018
    15   8 O    1.948 --    14 C    1.619    16 N    0.182
    16   7 N    3.458 --    14 C    1.236    17 C    1.018    37 H    0.913
                            15 O    0.182
    17   6 C    3.968 --    16 N    1.018    18 C    0.948    38 H    0.943
                            20 C    0.913
    18   6 C    3.951 --    19 N    0.988    24 S    0.965    39 H    0.962
                            17 C    0.948
    19   7 N    3.472 --    20 C    1.209    18 C    0.988    22 C    0.979
                            21 O    0.195
    20   6 C    3.939 --    21 O    1.712    19 N    1.209    17 C    0.913
    21   8 O    2.044 --    20 C    1.712    19 N    0.195
    22   6 C    3.963 --    19 N    0.979    40 H    0.945    27 C    0.943
                            23 C    0.932
    23   6 C    3.960 --    26 C    1.009    25 C    1.008    22 C    0.932
                            24 S    0.932
    24  16 S    2.076 --    18 C    0.965    23 C    0.932
    25   6 C    3.988 --    23 C    1.008    41 H    0.982    43 H    0.977
                            42 H    0.974
    26   6 C    3.984 --    23 C    1.009    46 H    0.981    44 H    0.978
                            45 H    0.973
    27   6 C    3.921 --    28 O    1.718    29 O    1.209    22 C    0.943
    28   8 O    2.000 --    27 C    1.718    29 O    0.186
    29   8 O    2.211 --    27 C    1.209    47 H    0.786    28 O    0.186
    30   1 H    0.989 --     1 C    0.945
    31   1 H    0.990 --     1 C    0.959
    32   1 H    0.988 --     1 C    0.968
    33   1 H    0.995 --     8 C    0.966
    34   1 H    0.993 --     9 C    0.965
    35   1 H    0.994 --    10 C    0.966
    36   1 H    0.994 --    11 C    0.965
    37   1 H    0.951 --    16 N    0.913
    38   1 H    0.991 --    17 C    0.943
    39   1 H    0.994 --    18 C    0.962
    40   1 H    0.990 --    22 C    0.945
    41   1 H    0.998 --    25 C    0.982
    42   1 H    0.995 --    25 C    0.974
    43   1 H    0.993 --    25 C    0.977
    44   1 H    0.992 --    26 C    0.978
    45   1 H    0.994 --    26 C    0.973
    46   1 H    0.997 --    26 C    0.981
    47   1 H    0.811 --    29 O    0.786
 ---------------------------------------------------------------------------

molecular dipole:
                 x           y           z       tot (Debye)
 q only:       -2.858       1.739       0.506
   full:       -3.475       0.999       0.350       9.233

           -------------------------------------------------
          | TOTAL ENERGY              -86.814103634641 Eh   |
          | GRADIENT NORM               0.000252710446 Eh/α |
          | HOMO-LUMO GAP               3.085743780751 eV   |
           -------------------------------------------------

 * finished run on 2024/09/05 at 11:50:52.063
