   * xtb version 6.6.0 (conda-forge) compiled by 'runner@Mac-1676020848589.local' on 2023-02-10
          program call               : xtb input_molecule.xyz --gfnff --chrg 0 --opt

   ID    Z sym.   atoms
    1    6 C      1-4
    2    1 H      5-14

 * total energy  :    -1.9563063 Eh     change        0.0000000E+00 Eh
 * total energy  :    -1.9586901 Eh     change       -0.2383788E-02 Eh
 * total energy  :    -1.9592873 Eh     change       -0.5971353E-03 Eh
 * total energy  :    -1.9593241 Eh     change       -0.3686782E-04 Eh
 * total energy  :    -1.9593349 Eh     change       -0.1073277E-04 Eh
 * total energy  :    -1.9593351 Eh     change       -0.2546278E-06 Eh
   *** GEOMETRY OPTIMIZATION CONVERGED AFTER 6 ITERATIONS ***

 final structure:
================
14
 xtb: 6.6.0 (conda-forge)
C           -1.93268106271266       -0.11585926715079        0.43341016562853
C           -0.47406859368779        0.11996239845800        0.79390211645762
C            0.47406493285120       -0.11996225933568       -0.38318786997162
C            1.93268350303246        0.11585905337857       -0.02269673580684
H           -2.09529303478544       -1.14105615733096        0.09393831226035
H           -2.59961043239228        0.05849102075025        1.28145003002687
H           -2.25176331135740        0.54464486450723       -0.37568385806316
H           -0.18207200946439       -0.52713682259247        1.63227198391164
H           -0.33721469835046        1.14427286222269        1.16662520149789
H            0.18207054541164        0.52716237307532       -1.22153791046921
H            0.33721589837091       -1.14428332396552       -0.75588139695651
H            2.09530162255100        1.14106079074610        0.31675591493395
H            2.25177215446733       -0.54465685517985        0.78638446722500
H            2.59959448606590       -0.05849867758288       -0.87075042067450

         :: total energy              -1.959335108351 Eh    ::
         :: gradient norm              0.000092641768 Eh/a0 ::
         :: repulsion energy           0.106227692898 Eh    ::

           -------------------------------------------------
          | TOTAL ENERGY               -1.959335108351 Eh   |
          | GRADIENT NORM               0.000092641768 Eh/α |
           -------------------------------------------------

 * finished run on 2024/09/04 at 15:55:54.806
