   * xtb version 6.6.0 (conda-forge) compiled by 'runner@Mac-1676020848589.local' on 2023-02-10
          program call               : xtb input_molecule.xyz --gfn2 --chrg 0 --opt

   ID    Z sym.   atoms
    1    6 C      1-4
    2    1 H      5-14

          :  Hamiltonian                  GFN2-xTB          :
 * total energy  :   -13.6620204 Eh     change       -0.2016343E-10 Eh
 * total energy  :   -13.6650007 Eh     change       -0.2980269E-02 Eh
 * total energy  :   -13.6651210 Eh     change       -0.1202857E-03 Eh
 * total energy  :   -13.6651265 Eh     change       -0.5557650E-05 Eh
 * total energy  :   -13.6651277 Eh     change       -0.1155176E-05 Eh
   *** GEOMETRY OPTIMIZATION CONVERGED AFTER 5 ITERATIONS ***

 final structure:
================
14
 xtb: 6.6.0 (conda-forge)
C           -1.87583146891081       -0.13660315618917       -0.20862164050052
C           -0.62977993813552       -0.18478938542263        0.66719198918524
C            0.62978094395626        0.18478569297402       -0.11276490041882
C            1.87583082121984        0.13660577582691        0.76305115918919
H           -2.75988077682468       -0.40290625057616        0.36629437126732
H           -2.01855604164658        0.86284754534408       -0.61438478243887
H           -1.78481755394976       -0.83238203353131       -1.04020093378732
H           -0.74860282163294        0.50532155129881        1.50589958143405
H           -0.51488088141321       -1.18982660690299        1.08010992429903
H            0.74860692996480       -0.50532799176275       -0.95146996251808
H            0.51488025988222        1.18982127761458       -0.52568645444502
H            1.78481061459213        0.83238309136574        1.59463105388611
H            2.01856027701984       -0.86284451381099        1.16881327850626
H            2.75987963587841        0.40291500377186        0.18813731634143

          :  Hamiltonian                  GFN2-xTB          :
         :: total energy             -13.665127687969 Eh    ::
         :: gradient norm              0.000196156069 Eh/a0 ::
         :: HOMO-LUMO gap             13.801184296490 eV    ::
         :: SCC energy               -13.875961371956 Eh    ::
         :: -> dispersion             -0.006049019577 Eh    ::
         :: repulsion energy           0.210829812072 Eh    ::

    * Orbital Energies and Occupations

         #    Occupation            Energy/Eh            Energy/eV
      -------------------------------------------------------------
         1        2.0000           -0.6179535             -16.8154
         2        2.0000           -0.5989522             -16.2983
         3        2.0000           -0.5679071             -15.4535
         4        2.0000           -0.5523945             -15.0314
         5        2.0000           -0.5138283             -13.9820
         6        2.0000           -0.4918329             -13.3835
         7        2.0000           -0.4878764             -13.2758
         8        2.0000           -0.4789650             -13.0333
         9        2.0000           -0.4546541             -12.3718
        10        2.0000           -0.4395100             -11.9597
        11        2.0000           -0.4367325             -11.8841
        12        2.0000           -0.4258071             -11.5868
        13        2.0000           -0.4195754             -11.4172 (HOMO)
        14                          0.0876087               2.3840 (LUMO)
        15                          0.1265477               3.4435
        16                          0.1277519               3.4763
        17                          0.1524429               4.1482
        18                          0.1628404               4.4311
        19                          0.1836180               4.9965
        20                          0.1936960               5.2707
        21                          0.1970830               5.3629
        22                          0.2244717               6.1082
        23                          0.2548299               6.9343
        24                          0.2645046               7.1975
       ...                                ...                  ...
        26                          0.3113420               8.4720
      -------------------------------------------------------------
                  HL-Gap            0.5071842 Eh           13.8012 eV

     #   Z          covCN         q      C6AA      α(0)
     1   6 C        3.752    -0.102    22.510     6.766
     2   6 C        3.801    -0.053    21.534     6.607
     3   6 C        3.801    -0.053    21.534     6.607
     4   6 C        3.752    -0.102    22.510     6.766
     5   1 H        0.925     0.032     2.554     2.499
     6   1 H        0.925     0.033     2.550     2.497
     7   1 H        0.925     0.033     2.550     2.497
     8   1 H        0.924     0.029     2.600     2.522
     9   1 H        0.924     0.029     2.600     2.522
    10   1 H        0.924     0.029     2.600     2.522
    11   1 H        0.924     0.029     2.600     2.522
    12   1 H        0.925     0.033     2.550     2.497
    13   1 H        0.925     0.033     2.550     2.497
    14   1 H        0.925     0.032     2.554     2.499

Wiberg/Mayer (AO) data.
largest (>0.10) Wiberg bond orders for each atom

     #   Z sym  total        # sym  WBO       # sym  WBO       # sym  WBO
 ---------------------------------------------------------------------------
     1   6 C    3.997 --     2 C    1.019     6 H    0.988     7 H    0.988
                             5 H    0.988
     2   6 C    3.998 --     1 C    1.019     3 C    1.009     9 H    0.979
                             8 H    0.979
     3   6 C    3.998 --     4 C    1.019     2 C    1.009    10 H    0.979
                            11 H    0.979
     4   6 C    3.997 --     3 C    1.019    13 H    0.988    12 H    0.988
                            14 H    0.988
     5   1 H    0.999 --     1 C    0.988
     6   1 H    0.999 --     1 C    0.988
     7   1 H    0.999 --     1 C    0.988
     8   1 H    0.999 --     2 C    0.979
     9   1 H    0.999 --     2 C    0.979
    10   1 H    0.999 --     3 C    0.979
    11   1 H    0.999 --     3 C    0.979
    12   1 H    0.999 --     4 C    0.988
    13   1 H    0.999 --     4 C    0.988
    14   1 H    0.999 --     4 C    0.988
 ---------------------------------------------------------------------------

molecular dipole:
                 x           y           z       tot (Debye)
 q only:        0.000       0.000       0.000
   full:        0.000       0.000       0.000       0.000

           -------------------------------------------------
          | TOTAL ENERGY              -13.665127687969 Eh   |
          | GRADIENT NORM               0.000196156069 Eh/α |
          | HOMO-LUMO GAP              13.801184296490 eV   |
           -------------------------------------------------

 * finished run on 2024/09/04 at 15:58:53.464
