   * xtb version 6.6.0 (conda-forge) compiled by 'runner@Mac-1676020848589.local' on 2023-02-10
          program call               : xtb input_molecule.xyz --gfn2 --chrg 0 --opt

   ID    Z sym.   atoms
    1    8 O      1
    2    1 H      2, 3

          :  Hamiltonian                  GFN2-xTB          :
 * total energy  :    -5.0689783 Eh     change       -0.8881784E-15 Eh
 * total energy  :    -5.0703646 Eh     change       -0.1386281E-02 Eh
 * total energy  :    -5.0705334 Eh     change       -0.1688084E-03 Eh
 * total energy  :    -5.0705430 Eh     change       -0.9606053E-05 Eh
 * total energy  :    -5.0705441 Eh     change       -0.1057095E-05 Eh
   *** GEOMETRY OPTIMIZATION CONVERGED AFTER 5 ITERATIONS ***

 final structure:
================
3
 xtb: 6.6.0 (conda-forge)
O            0.00545444595971        0.37883020078238        0.00000000000000
H           -0.77557388605797       -0.17821972962024        0.00000000000000
H            0.77001944009826       -0.20061047116215        0.00000000000000

          :  Hamiltonian                  GFN2-xTB          :
         :: total energy              -5.070544094048 Eh    ::
         :: gradient norm              0.000338148690 Eh/a0 ::
         :: HOMO-LUMO gap             14.376575596020 eV    ::
         :: SCC energy                -5.104871458260 Eh    ::
         :: -> dispersion             -0.000141078778 Eh    ::
         :: repulsion energy           0.034327364187 Eh    ::

    * Orbital Energies and Occupations

         #    Occupation            Energy/Eh            Energy/eV
      -------------------------------------------------------------
         1        2.0000           -0.6800052             -18.5039
         2        2.0000           -0.5683764             -15.4663
         3        2.0000           -0.5106974             -13.8968
         4        2.0000           -0.4463313             -12.1453 (HOMO)
         5                          0.0819981               2.2313 (LUMO)
         6                          0.2516532               6.8478
      -------------------------------------------------------------
                  HL-Gap            0.5283294 Eh           14.3766 eV

     #   Z          covCN         q      C6AA      α(0)
     1   8 O        1.611    -0.565    24.359     6.661
     2   1 H        0.805     0.282     0.776     1.384
     3   1 H        0.805     0.282     0.776     1.384

Wiberg/Mayer (AO) data.
largest (>0.10) Wiberg bond orders for each atom

     #   Z sym  total        # sym  WBO       # sym  WBO       # sym  WBO
 ---------------------------------------------------------------------------
     1   8 O    1.840 --     3 H    0.920     2 H    0.920
     2   1 H    0.920 --     1 O    0.920
     3   1 H    0.920 --     1 O    0.920
 ---------------------------------------------------------------------------

molecular dipole:
                 x           y           z       tot (Debye)
 q only:       -0.009      -0.606       0.000
   full:       -0.013      -0.871      -0.000       2.215

           -------------------------------------------------
          | TOTAL ENERGY               -5.070544094048 Eh   |
          | GRADIENT NORM               0.000338148690 Eh/α |
          | HOMO-LUMO GAP              14.376575596020 eV   |
           -------------------------------------------------

 * finished run on 2024/09/04 at 23:58:48.596
