   * xtb version 6.6.0 (conda-forge) compiled by 'runner@Mac-1676020848589.local' on 2023-02-10
          program call               : xtb input_molecule.xyz --gfn1 --chrg 0 --opt --alpb benzene

   ID    Z sym.   atoms
    1    6 C      1
    2    1 H      2-5
########################################################################
[WARNING] Please study the warnings concerning your input carefully
-1- prog_main_parseArguments: The use of '--gfn1' is discouraged, please use '--gfn 1' next time
########################################################################

      * Solvation model:               ALPB
        Solvent                        benzene
        Solvent mass                       7.8110E+01 g/mol
          :  Hamiltonian                  GFN1-xTB          :
 * total energy  :    -4.2726437 Eh     change       -0.3108624E-13 Eh
 * total energy  :    -4.2738782 Eh     change       -0.1234483E-02 Eh
 * total energy  :    -4.2739027 Eh     change       -0.2445958E-04 Eh
 * total energy  :    -4.2739028 Eh     change       -0.9283269E-07 Eh
   *** GEOMETRY OPTIMIZATION CONVERGED AFTER 4 ITERATIONS ***

 final structure:
================
5
 xtb: 6.6.0 (conda-forge)
C           -0.00004127791539       -0.00001945805503        0.00002497709156
H           -0.60556086238673        0.13845029696725        0.89168289116698
H           -0.39160182509028       -0.83265365093727       -0.57815057551414
H           -0.02935459689049        0.90441459340180       -0.60169430205311
H            1.02645856228289       -0.21009178137675        0.28823700930871

          :  Hamiltonian                  GFN1-xTB          :
         :: total energy              -4.273902778340 Eh    ::
         :: gradient norm              0.000155395404 Eh/a0 ::
         :: HOMO-LUMO gap              9.984809349144 eV    ::
         :: SCC energy                -4.341461165162 Eh    ::
         :: -> Gsolv                   0.000367233001 Eh    ::
         :: repulsion energy           0.068013129214 Eh    ::

    * Orbital Energies and Occupations

         #    Occupation            Energy/Eh            Energy/eV
      -------------------------------------------------------------
         1        2.0000           -0.6271791             -17.0664
         2        2.0000           -0.5130963             -13.9621
         3        2.0000           -0.5130913             -13.9619
         4        2.0000           -0.5130823             -13.9617 (HOMO)
         5                         -0.1461473              -3.9769 (LUMO)
         6                         -0.0594055              -1.6165
         7                         -0.0594033              -1.6164
         8                         -0.0594000              -1.6164
         9                          0.2731723               7.4334
        10                          0.2732433               7.4353
        11                          0.2732783               7.4363
        12                          0.5233785              14.2419
      -------------------------------------------------------------
                  HL-Gap            0.3669350 Eh            9.9848 eV

Wiberg/Mayer (AO) data.
largest (>0.10) Wiberg bond orders for each atom

     #   Z sym  total        # sym  WBO       # sym  WBO       # sym  WBO
 ---------------------------------------------------------------------------
     1   6 C    3.993 --     2 H    0.998     5 H    0.998     4 H    0.998
                             3 H    0.998
     2   1 H    1.001 --     1 C    0.998
     3   1 H    1.001 --     1 C    0.998
     4   1 H    1.001 --     1 C    0.998
     5   1 H    1.001 --     1 C    0.998
 ---------------------------------------------------------------------------

           -------------------------------------------------
          | TOTAL ENERGY               -4.273902778340 Eh   |
          | GRADIENT NORM               0.000155395404 Eh/α |
          | HOMO-LUMO GAP               9.984809349144 eV   |
           -------------------------------------------------

 * finished run on 2024/09/04 at 15:46:44.104
