   * xtb version 6.6.0 (conda-forge) compiled by 'runner@Mac-1676020848589.local' on 2023-02-10
          program call               : xtb --chrg 0 --uhf 0 tartaric_acid.xyz --opt energy --alpb water --gfn2 Tartaric_acid.xyz

   ID    Z sym.   atoms
    1    6 C      1-3, 7
    2    8 O      4-6, 8-10
    3    1 H      11-16
########################################################################
[WARNING] Please study the warnings concerning your input carefully
-1- prog_main: Input file 'tartaric_acid.xyz' will be ignored
########################################################################

      * Solvation model:               ALPB
        Solvent                        water
        Solvent mass                       1.8000E+01 g/mol
          :  Hamiltonian                  GFN2-xTB          :
 * total energy  :   -36.0254385 Eh     change       -0.5083436E-09 Eh
 * total energy  :   -36.0488430 Eh     change       -0.2340455E-01 Eh
 * total energy  :   -36.0540499 Eh     change       -0.5206845E-02 Eh
 * total energy  :   -36.0550961 Eh     change       -0.1046259E-02 Eh
 * total energy  :   -36.0556061 Eh     change       -0.5099313E-03 Eh
 * total energy  :   -36.0561212 Eh     change       -0.5151555E-03 Eh
 * total energy  :   -36.0566125 Eh     change       -0.4913127E-03 Eh
 * total energy  :   -36.0571397 Eh     change       -0.5271577E-03 Eh
 * total energy  :   -36.0576781 Eh     change       -0.5383898E-03 Eh
 * total energy  :   -36.0581140 Eh     change       -0.4359347E-03 Eh
 * total energy  :   -36.0615323 Eh     change        0.5120641E-04 Eh
 * total energy  :   -36.0616056 Eh     change       -0.7332277E-04 Eh
 * total energy  :   -36.0616134 Eh     change       -0.7762343E-05 Eh
 * total energy  :   -36.0616223 Eh     change       -0.8864107E-05 Eh
 * total energy  :   -36.0616333 Eh     change       -0.1105485E-04 Eh
 * total energy  :   -36.0616497 Eh     change       -0.1638149E-04 Eh
 * total energy  :   -36.0616571 Eh     change       -0.7395554E-05 Eh
 * total energy  :   -36.0616625 Eh     change       -0.5376653E-05 Eh
 * total energy  :   -36.0616651 Eh     change       -0.2653785E-05 Eh
   *** GEOMETRY OPTIMIZATION CONVERGED AFTER 41 ITERATIONS ***

 final structure:
================
16
 xtb: 6.6.0 (conda-forge)
C           -0.59546498950100       -0.82252492634982        0.05273829591653
C            0.66848690148719       -0.53236167066867       -0.81285773894925
C            1.47791700392508        0.55243069208180       -0.11258983145125
O            2.54898703654477        0.34507746048045        0.40607973525780
O            0.86915185224467        1.71989797666736       -0.12088814070944
O            1.42628908428651       -1.67842437092135       -1.03208518077696
C           -1.55625901473927        0.35448875515826        0.00335910393980
O           -1.94605276456547        0.88734429779591        1.01994206540708
O           -1.91332892741382        0.69625871857108       -1.20703109747544
O           -0.23818426756811       -1.10551902141750        1.37801571573242
H           -1.08873021813510       -1.69908400222261       -0.39330702686185
H            0.33657647204932       -0.17093925773532       -1.79109004366713
H            1.37976134969488        2.42075454356930        0.33580172140128
H            1.94368093593130       -1.87769404256135       -0.23527395910705
H           -2.54148516985795        1.44830917598520       -1.22807028701689
H           -0.77114528438316       -0.53811432843250        1.96475666836018

          :  Hamiltonian                  GFN2-xTB          :
         :: total energy             -36.061665132646 Eh    ::
         :: gradient norm              0.000319845974 Eh/a0 ::
         :: HOMO-LUMO gap              4.158164992607 eV    ::
         :: SCC energy               -36.311289605296 Eh    ::
         :: -> dispersion             -0.011906712487 Eh    ::
         :: -> Gsolv                  -0.042243409544 Eh    ::
         :: repulsion energy           0.249575520250 Eh    ::

    * Orbital Energies and Occupations

         #    Occupation            Energy/Eh            Energy/eV
      -------------------------------------------------------------
         1        2.0000           -0.7647808             -20.8107
       ...           ...                  ...                  ...
        17        2.0000           -0.5594536             -15.2235
        18        2.0000           -0.5484230             -14.9233
        19        2.0000           -0.5357547             -14.5786
        20        2.0000           -0.5350121             -14.5584
        21        2.0000           -0.5271836             -14.3454
        22        2.0000           -0.4991474             -13.5825
        23        2.0000           -0.4967505             -13.5173
        24        2.0000           -0.4942535             -13.4493
        25        2.0000           -0.4871904             -13.2571
        26        2.0000           -0.4653295             -12.6623
        27        2.0000           -0.4458741             -12.1329
        28        2.0000           -0.4409651             -11.9993
        29        2.0000           -0.4171884             -11.3523 (HOMO)
        30                         -0.2643787              -7.1941 (LUMO)
        31                         -0.2465979              -6.7103
        32                          0.0171299               0.4661
        33                          0.0263875               0.7180
        34                          0.0457280               1.2443
        35                          0.0698348               1.9003
        36                          0.0824989               2.2449
        37                          0.1445616               3.9337
        38                          0.1574372               4.2841
        39                          0.1653272               4.4988
        40                          0.1728773               4.7042
       ...                                ...                  ...
        46                          0.6119671              16.6525
      -------------------------------------------------------------
                  HL-Gap            0.1528098 Eh            4.1582 eV

     #   Z          covCN         q      C6AA      α(0)
     1   6 C        3.727     0.081    19.324     6.276
     2   6 C        3.726     0.085    19.263     6.266
     3   6 C        2.690     0.363    20.847     7.472
     4   8 O        0.856    -0.454    22.791     6.401
     5   8 O        1.659    -0.411    21.072     6.197
     6   8 O        1.656    -0.470    22.252     6.368
     7   6 C        2.689     0.358    20.924     7.486
     8   8 O        0.856    -0.464    23.001     6.430
     9   8 O        1.659    -0.395    20.758     6.151
    10   8 O        1.655    -0.493    22.736     6.437
    11   1 H        0.923     0.091     1.867     2.137
    12   1 H        0.924     0.099     1.796     2.096
    13   1 H        0.803     0.437     0.423     1.022
    14   1 H        0.804     0.366     0.553     1.168
    15   1 H        0.803     0.444     0.412     1.008
    16   1 H        0.804     0.364     0.556     1.172

Wiberg/Mayer (AO) data.
largest (>0.10) Wiberg bond orders for each atom

     #   Z sym  total        # sym  WBO       # sym  WBO       # sym  WBO
 ---------------------------------------------------------------------------
     1   6 C    3.962 --    10 O    1.014     7 C    0.953    11 H    0.930
                             2 C    0.916
     2   6 C    3.963 --     6 O    1.025     3 C    0.944    12 H    0.940
                             1 C    0.916
     3   6 C    3.915 --     4 O    1.725     5 O    1.195     2 C    0.944
     4   8 O    2.006 --     3 C    1.725     5 O    0.180
     5   8 O    2.191 --     3 C    1.195    13 H    0.784     4 O    0.180
     6   8 O    1.957 --     2 C    1.025    14 H    0.846
     7   6 C    3.921 --     8 O    1.694     9 O    1.218     1 C    0.953
     8   8 O    1.999 --     7 C    1.694     9 O    0.179
     9   8 O    2.209 --     7 C    1.218    15 H    0.778     8 O    0.179
    10   8 O    1.926 --     1 C    1.014    16 H    0.834
    11   1 H    0.992 --     1 C    0.930
    12   1 H    0.990 --     2 C    0.940
    13   1 H    0.809 --     5 O    0.784
    14   1 H    0.866 --     6 O    0.846
    15   1 H    0.803 --     9 O    0.778
    16   1 H    0.867 --    10 O    0.834
 ---------------------------------------------------------------------------

molecular dipole:
                 x           y           z       tot (Debye)
 q only:       -1.101       1.214      -0.777
   full:       -1.243       1.482      -0.656       5.191

           -------------------------------------------------
          | TOTAL ENERGY              -36.061665132646 Eh   |
          | GRADIENT NORM               0.000319845974 Eh/α |
          | HOMO-LUMO GAP               4.158164992607 eV   |
           -------------------------------------------------

 * finished run on 2024/12/10 at 16:45:21.883
