   * xtb version 6.6.0 (conda-forge) compiled by 'runner@Mac-1676020848589.local' on 2023-02-10
          program call               : xtb acetaminophen.xyz --opt --gfn2 --alpb water

   ID    Z sym.   atoms
    1    6 C      1, 2, 5-10
    2    8 O      3, 11
    3    7 N      4
    4    1 H      12-20

      * Solvation model:               ALPB
        Solvent                        water
        Solvent mass                       1.8000E+01 g/mol
          :  Hamiltonian                  GFN2-xTB          :
 * total energy  :   -32.7779545 Eh     change       -0.1027800E-09 Eh
 * total energy  :   -32.7923443 Eh     change       -0.1438978E-01 Eh
 * total energy  :   -32.7960609 Eh     change       -0.3716600E-02 Eh
 * total energy  :   -32.7967939 Eh     change       -0.7329859E-03 Eh
 * total energy  :   -32.7972261 Eh     change       -0.4322460E-03 Eh
 * total energy  :   -32.7975267 Eh     change       -0.3005859E-03 Eh
 * total energy  :   -32.7978333 Eh     change       -0.3065745E-03 Eh
 * total energy  :   -32.7981342 Eh     change       -0.3009628E-03 Eh
 * total energy  :   -32.7984082 Eh     change       -0.2740202E-03 Eh
 * total energy  :   -32.7985950 Eh     change       -0.1867377E-03 Eh
 * total energy  :   -32.7992771 Eh     change       -0.7119970E-04 Eh
 * total energy  :   -32.7993133 Eh     change       -0.3622359E-04 Eh
 * total energy  :   -32.7993561 Eh     change       -0.4284041E-04 Eh
 * total energy  :   -32.7993834 Eh     change       -0.2724618E-04 Eh
 * total energy  :   -32.7994104 Eh     change       -0.2701280E-04 Eh
 * total energy  :   -32.7994316 Eh     change       -0.2118084E-04 Eh
 * total energy  :   -32.7994444 Eh     change       -0.1287399E-04 Eh
 * total energy  :   -32.7994510 Eh     change       -0.6561594E-05 Eh
 * total energy  :   -32.7994549 Eh     change       -0.3925755E-05 Eh
   *** GEOMETRY OPTIMIZATION CONVERGED AFTER 23 ITERATIONS ***

 final structure:
================
20
 xtb: 6.6.0 (conda-forge)
C            3.67795818806382        0.12720633226900       -0.34257655010252
C            2.38945656190655       -0.13257173941655        0.40331088831481
O            2.36825560630077       -0.55552719608634        1.55326154791333
N            1.28841046633583        0.14429690494123       -0.33470674184674
C           -0.06784174845275        0.03402375142767        0.00404822511744
C           -1.00697059804193        0.44214683082415       -0.93983491094791
C           -2.35910135218672        0.36226848196476       -0.67112037620779
C           -2.79960529316432       -0.13073149852665        0.55195352419430
C           -1.86272862393029       -0.54178854883631        1.49541366146063
C           -0.51143438200432       -0.46151492180514        1.22697856491209
O           -4.11924023627943       -0.23039555090361        0.86808852138519
H            3.69722347549817        1.14371777008992       -0.72524493794745
H            4.51430947816177       -0.02110188663802        0.33398837702631
H            3.76707012808647       -0.56722983644645       -1.17417298254497
H            1.45208391137431        0.49526105514111       -1.27041759671736
H           -0.67916890725991        0.82656418732766       -1.89374566829952
H           -3.07253035938762        0.68414216118890       -1.41523695647715
H           -2.21246749484478       -0.92445131579754        2.44080709882773
H            0.20518901982030       -0.78067822463919        1.96523155532546
H           -4.66866783999591        0.08636324392184        0.13527475661400

          :  Hamiltonian                  GFN2-xTB          :
         :: total energy             -32.799454935495 Eh    ::
         :: gradient norm              0.000961854907 Eh/a0 ::
         :: HOMO-LUMO gap              3.655768608725 eV    ::
         :: SCC energy               -33.260304892599 Eh    ::
         :: -> dispersion             -0.015957157546 Eh    ::
         :: -> Gsolv                  -0.023348988692 Eh    ::
         :: repulsion energy           0.460896698536 Eh    ::

    * Orbital Energies and Occupations

         #    Occupation            Energy/Eh            Energy/eV
      -------------------------------------------------------------
         1        2.0000           -0.7073727             -19.2486
       ...           ...                  ...                  ...
        17        2.0000           -0.4979388             -13.5496
        18        2.0000           -0.4884461             -13.2913
        19        2.0000           -0.4862679             -13.2320
        20        2.0000           -0.4803785             -13.0718
        21        2.0000           -0.4743812             -12.9086
        22        2.0000           -0.4709481             -12.8152
        23        2.0000           -0.4686427             -12.7524
        24        2.0000           -0.4585393             -12.4775
        25        2.0000           -0.4315362             -11.7427
        26        2.0000           -0.4261342             -11.5957
        27        2.0000           -0.4072168             -11.0809
        28        2.0000           -0.3974704             -10.8157
        29        2.0000           -0.3697119             -10.0604 (HOMO)
        30                         -0.2353649              -6.4046 (LUMO)
        31                         -0.2252823              -6.1302
        32                         -0.1863618              -5.0712
        33                         -0.0841112              -2.2888
        34                          0.0134275               0.3654
        35                          0.0782431               2.1291
        36                          0.0879266               2.3926
        37                          0.1362542               3.7077
        38                          0.1556203               4.2346
        39                          0.1635387               4.4501
        40                          0.1782150               4.8495
       ...                                ...                  ...
        53                          0.6696874              18.2231
      -------------------------------------------------------------
                  HL-Gap            0.1343470 Eh            3.6558 eV

     #   Z          covCN         q      C6AA      α(0)
     1   6 C        3.759    -0.167    23.791     6.954
     2   6 C        2.746     0.284    22.189     7.713
     3   8 O        0.857    -0.516    24.134     6.586
     4   7 N        2.697    -0.166    24.583     7.364
     5   6 C        2.904     0.062    26.614     8.459
     6   6 C        2.926    -0.060    29.494     8.906
     7   6 C        2.918    -0.075    29.874     8.963
     8   6 C        2.845     0.141    24.929     8.183
     9   6 C        2.920    -0.061    29.509     8.908
    10   6 C        2.921    -0.050    29.230     8.866
    11   8 O        1.659    -0.458    22.014     6.334
    12   1 H        0.925     0.084     1.937     2.177
    13   1 H        0.925     0.075     2.029     2.228
    14   1 H        0.925     0.087     1.904     2.158
    15   1 H        0.860     0.225     0.986     1.555
    16   1 H        0.926     0.056     2.249     2.345
    17   1 H        0.926     0.054     2.271     2.357
    18   1 H        0.926     0.050     2.317     2.381
    19   1 H        0.926     0.059     2.213     2.326
    20   1 H        0.804     0.374     0.534     1.148

Wiberg/Mayer (AO) data.
largest (>0.10) Wiberg bond orders for each atom

     #   Z sym  total        # sym  WBO       # sym  WBO       # sym  WBO
 ---------------------------------------------------------------------------
     1   6 C    3.988 --     2 C    0.990    13 H    0.983    12 H    0.966
                            14 H    0.961
     2   6 C    3.937 --     3 O    1.634     4 N    1.245     1 C    0.990
     3   8 O    1.943 --     2 C    1.634     4 N    0.164
     4   7 N    3.506 --     2 C    1.245     5 C    1.066    15 H    0.917
                             3 O    0.164
     5   6 C    3.962 --     6 C    1.368    10 C    1.367     4 N    1.066
     6   6 C    3.988 --     7 C    1.459     5 C    1.368    16 H    0.965
                             9 C    0.105
     7   6 C    3.986 --     6 C    1.459     8 C    1.365    17 H    0.965
                            10 C    0.102
     8   6 C    3.940 --     7 C    1.365     9 C    1.362    11 O    1.074
     9   6 C    3.989 --    10 C    1.464     8 C    1.362    18 H    0.968
                             6 C    0.105
    10   6 C    3.990 --     9 C    1.464     5 C    1.367    19 H    0.963
                             7 C    0.102
    11   8 O    2.068 --     8 C    1.074    20 H    0.840
    12   1 H    0.992 --     1 C    0.966
    13   1 H    0.994 --     1 C    0.983
    14   1 H    0.992 --     1 C    0.961
    15   1 H    0.949 --     4 N    0.917
    16   1 H    0.997 --     6 C    0.965
    17   1 H    0.997 --     7 C    0.965
    18   1 H    0.997 --     9 C    0.968
    19   1 H    0.997 --    10 C    0.963
    20   1 H    0.860 --    11 O    0.840
 ---------------------------------------------------------------------------

molecular dipole:
                 x           y           z       tot (Debye)
 q only:       -0.466       0.897      -2.375
   full:       -0.425       1.007      -2.659       7.307

           -------------------------------------------------
          | TOTAL ENERGY              -32.799454935495 Eh   |
          | GRADIENT NORM               0.000961854907 Eh/α |
          | HOMO-LUMO GAP               3.655768608725 eV   |
           -------------------------------------------------

 * finished run on 2024/10/27 at 13:20:24.633
