   * xtb version 6.6.0 (conda-forge) compiled by 'runner@Mac-1676020848589.local' on 2023-02-10
          program call               : xtb --opt --gfn2 lactic_acid.xyz

   ID    Z sym.   atoms
    1    6 C      1-3
    2    8 O      4-6
    3    1 H      7-12

          :  Hamiltonian                  GFN2-xTB          :
 * total energy  :   -21.6662301 Eh     change       -0.5162661E-09 Eh
 * total energy  :   -21.6799259 Eh     change       -0.1369581E-01 Eh
 * total energy  :   -21.6822379 Eh     change       -0.2312018E-02 Eh
 * total energy  :   -21.6825054 Eh     change       -0.2674855E-03 Eh
 * total energy  :   -21.6827015 Eh     change       -0.1960433E-03 Eh
 * total energy  :   -21.6829046 Eh     change       -0.2031115E-03 Eh
 * total energy  :   -21.6831778 Eh     change       -0.2732507E-03 Eh
 * total energy  :   -21.6835187 Eh     change       -0.3409265E-03 Eh
 * total energy  :   -21.6838737 Eh     change       -0.3549370E-03 Eh
 * total energy  :   -21.6840024 Eh     change       -0.1287502E-03 Eh
 * total energy  :   -21.6842994 Eh     change       -0.2893533E-03 Eh
 * total energy  :   -21.6843357 Eh     change       -0.3633045E-04 Eh
 * total energy  :   -21.6844016 Eh     change       -0.6588919E-04 Eh
 * total energy  :   -21.6844136 Eh     change       -0.1199713E-04 Eh
 * total energy  :   -21.6844349 Eh     change       -0.2130355E-04 Eh
 * total energy  :   -21.6844519 Eh     change       -0.1693142E-04 Eh
 * total energy  :   -21.6844554 Eh     change       -0.3576651E-05 Eh
 * total energy  :   -21.6844601 Eh     change       -0.4681672E-05 Eh
 * total energy  :   -21.6844619 Eh     change       -0.1783473E-05 Eh
   *** GEOMETRY OPTIMIZATION CONVERGED AFTER 21 ITERATIONS ***

 final structure:
================
12
 xtb: 6.6.0 (conda-forge)
C           -1.13588119928810       -0.63362737594325        0.49777037399838
C           -0.34672824956846        0.17002718747559       -0.54929787061809
C            1.10000485209119        0.24475102330704       -0.09235282640002
O            1.58927676114188        1.24171874507805        0.37156143514399
O            1.75130293734564       -0.90839919265163       -0.21766527826704
O           -0.85906382105137        1.46166468200970       -0.71886972281445
H           -0.74838963562784       -1.64612862604784        0.56022293594167
H           -1.05846401098266       -0.15486357041838        1.47173230252238
H           -2.18156744975915       -0.66225759529678        0.20590760643575
H           -0.39824803405679       -0.33958741913327       -1.51768956433732
H            2.66138929210454       -0.82623546082221        0.11158978781845
H           -0.37383144234893        2.05283760244296       -0.12290917942372

          :  Hamiltonian                  GFN2-xTB          :
         :: total energy             -21.684461907781 Eh    ::
         :: gradient norm              0.000649753490 Eh/a0 ::
         :: HOMO-LUMO gap              4.588462905668 eV    ::
         :: SCC energy               -21.870128910108 Eh    ::
         :: -> dispersion             -0.006109920042 Eh    ::
         :: repulsion energy           0.185660053451 Eh    ::

    * Orbital Energies and Occupations

         #    Occupation            Energy/Eh            Energy/eV
      -------------------------------------------------------------
         1        2.0000           -0.7633440             -20.7716
       ...           ...                  ...                  ...
         6        2.0000           -0.6135853             -16.6965
         7        2.0000           -0.6078475             -16.5404
         8        2.0000           -0.6009326             -16.3522
         9        2.0000           -0.5867814             -15.9671
        10        2.0000           -0.5431154             -14.7789
        11        2.0000           -0.5374526             -14.6248
        12        2.0000           -0.5172169             -14.0742
        13        2.0000           -0.4980894             -13.5537
        14        2.0000           -0.4921180             -13.3912
        15        2.0000           -0.4829682             -13.1422
        16        2.0000           -0.4747799             -12.9194
        17        2.0000           -0.4363426             -11.8735
        18        2.0000           -0.4202546             -11.4357 (HOMO)
        19                         -0.2516317              -6.8472 (LUMO)
        20                          0.0306546               0.8342
        21                          0.0560660               1.5256
        22                          0.0982867               2.6745
        23                          0.1319342               3.5901
        24                          0.1544727               4.2034
        25                          0.1634145               4.4467
        26                          0.1924917               5.2380
        27                          0.2247108               6.1147
        28                          0.2488304               6.7710
        29                          0.2754480               7.4953
        30                          0.6218756              16.9221
      -------------------------------------------------------------
                  HL-Gap            0.1686229 Eh            4.5885 eV

     #   Z          covCN         q      C6AA      α(0)
     1   6 C        3.755    -0.120    22.851     6.816
     2   6 C        3.726     0.093    19.141     6.247
     3   6 C        2.692     0.347    21.103     7.518
     4   8 O        0.856    -0.408    21.835     6.265
     5   8 O        1.659    -0.369    20.266     6.077
     6   8 O        1.656    -0.433    21.498     6.259
     7   1 H        0.925     0.054     2.269     2.356
     8   1 H        0.925     0.052     2.294     2.368
     9   1 H        0.925     0.068     2.103     2.268
    10   1 H        0.924     0.067     2.121     2.278
    11   1 H        0.804     0.338     0.618     1.235
    12   1 H        0.804     0.311     0.690     1.305

Wiberg/Mayer (AO) data.
largest (>0.10) Wiberg bond orders for each atom

     #   Z sym  total        # sym  WBO       # sym  WBO       # sym  WBO
 ---------------------------------------------------------------------------
     1   6 C    3.990 --     8 H    0.986     7 H    0.985     9 H    0.981
                             2 C    0.968
     2   6 C    3.965 --     6 O    1.013     1 C    0.968     3 C    0.950
                            10 H    0.948
     3   6 C    3.909 --     4 O    1.757     5 O    1.149     2 C    0.950
     4   8 O    2.046 --     3 C    1.757     5 O    0.173
     5   8 O    2.211 --     3 C    1.149    11 H    0.860     4 O    0.173
     6   8 O    1.968 --     2 C    1.013    12 H    0.877
     7   1 H    0.997 --     1 C    0.985
     8   1 H    0.997 --     1 C    0.986
     9   1 H    0.995 --     1 C    0.981
    10   1 H    0.996 --     2 C    0.948
    11   1 H    0.886 --     5 O    0.860
    12   1 H    0.904 --     6 O    0.877
 ---------------------------------------------------------------------------

molecular dipole:
                 x           y           z       tot (Debye)
 q only:        0.140      -0.819       0.220
   full:        0.427      -0.904       0.359       2.701

           -------------------------------------------------
          | TOTAL ENERGY              -21.684461907781 Eh   |
          | GRADIENT NORM               0.000649753490 Eh/α |
          | HOMO-LUMO GAP               4.588462905668 eV   |
           -------------------------------------------------

 * finished run on 2024/09/29 at 18:05:17.463
