   * xtb version 6.6.0 (conda-forge) compiled by 'runner@Mac-1676020848589.local' on 2023-02-10
          program call               : xtb paracetamol.xyz --opt --gfn2

   ID    Z sym.   atoms
    1    6 C      1, 2, 5-10
    2    8 O      3, 11
    3    7 N      4
    4    1 H      12-20

          :  Hamiltonian                  GFN2-xTB          :
 * total energy  :   -32.7592617 Eh     change       -0.5348966E-09 Eh
 * total energy  :   -32.7753213 Eh     change       -0.1605952E-01 Eh
 * total energy  :   -32.7791920 Eh     change       -0.3870760E-02 Eh
 * total energy  :   -32.7799933 Eh     change       -0.8012538E-03 Eh
 * total energy  :   -32.7804469 Eh     change       -0.4535884E-03 Eh
 * total energy  :   -32.7808020 Eh     change       -0.3551379E-03 Eh
 * total energy  :   -32.7811662 Eh     change       -0.3641541E-03 Eh
 * total energy  :   -32.7815495 Eh     change       -0.3833248E-03 Eh
 * total energy  :   -32.7818885 Eh     change       -0.3390443E-03 Eh
 * total energy  :   -32.7821196 Eh     change       -0.2310805E-03 Eh
 * total energy  :   -32.7827830 Eh     change       -0.8917765E-04 Eh
 * total energy  :   -32.7828333 Eh     change       -0.5028344E-04 Eh
 * total energy  :   -32.7828686 Eh     change       -0.3534964E-04 Eh
 * total energy  :   -32.7829088 Eh     change       -0.4013036E-04 Eh
 * total energy  :   -32.7829273 Eh     change       -0.1855204E-04 Eh
 * total energy  :   -32.7829535 Eh     change       -0.2620629E-04 Eh
 * total energy  :   -32.7829655 Eh     change       -0.1196676E-04 Eh
 * total energy  :   -32.7829726 Eh     change       -0.7135912E-05 Eh
 * total energy  :   -32.7829771 Eh     change       -0.4444329E-05 Eh
   *** GEOMETRY OPTIMIZATION CONVERGED AFTER 23 ITERATIONS ***

 final structure:
================
20
 xtb: 6.6.0 (conda-forge)
C            3.68014697950991       -0.22856614213514       -0.28887269412198
C            2.36947248892894        0.44262428101659        0.07860082699626
O            2.30429032760487        1.56664824212489        0.51910346468566
N            1.29711918743806       -0.37188570476032       -0.14029236662657
C           -0.06529876110361       -0.11583374516290        0.06297278679737
C           -0.54152344525280        1.07979992910814        0.59541756883060
C           -1.89661950169904        1.27116590562209        0.76741831329404
C           -2.80361201238987        0.27732379323598        0.41341620956347
C           -2.33087630795572       -0.91716078797471       -0.11506266243575
C           -0.97376523629986       -1.11015610767055       -0.28755177806107
O           -4.13201166304880        0.51336029605146        0.59973757431549
H            4.48774629859789        0.48984649289189       -0.18361536736534
H            3.65077526607258       -0.58960979474810       -1.31488154460480
H            3.86629908036144       -1.06980723993117        0.37591418720770
H            1.49423753721183       -1.28958656248859       -0.51550458543978
H            0.15531296205134        1.85334984611804        0.86918928922582
H           -2.27420567816376        2.19326812099108        1.17846761657791
H           -3.02588919493440       -1.69863122394598       -0.39322182624706
H           -0.61818121359116       -2.04421667040448       -0.70032797972201
H           -4.64341711333789       -0.25173292793839        0.31109296713009

          :  Hamiltonian                  GFN2-xTB          :
         :: total energy             -32.782977063239 Eh    ::
         :: gradient norm              0.000636711769 Eh/a0 ::
         :: HOMO-LUMO gap              3.754908668304 eV    ::
         :: SCC energy               -33.246604739816 Eh    ::
         :: -> dispersion             -0.016032572901 Eh    ::
         :: repulsion energy           0.463674303509 Eh    ::

    * Orbital Energies and Occupations

         #    Occupation            Energy/Eh            Energy/eV
      -------------------------------------------------------------
         1        2.0000           -0.7105857             -19.3360
       ...           ...                  ...                  ...
        17        2.0000           -0.4986868             -13.5700
        18        2.0000           -0.4926106             -13.4046
        19        2.0000           -0.4919986             -13.3880
        20        2.0000           -0.4847468             -13.1906
        21        2.0000           -0.4801058             -13.0643
        22        2.0000           -0.4747486             -12.9186
        23        2.0000           -0.4742755             -12.9057
        24        2.0000           -0.4603002             -12.5254
        25        2.0000           -0.4324538             -11.7677
        26        2.0000           -0.4282508             -11.6533
        27        2.0000           -0.4087489             -11.1226
        28        2.0000           -0.3935280             -10.7084
        29        2.0000           -0.3706400             -10.0856 (HOMO)
        30                         -0.2326496              -6.3307 (LUMO)
        31                         -0.2269132              -6.1746
        32                         -0.1862472              -5.0680
        33                         -0.0856252              -2.3300
        34                          0.0084681               0.2304
        35                          0.0730050               1.9866
        36                          0.0790076               2.1499
        37                          0.1259889               3.4283
        38                          0.1487847               4.0486
        39                          0.1529220               4.1612
        40                          0.1762385               4.7957
       ...                                ...                  ...
        53                          0.6773391              18.4313
      -------------------------------------------------------------
                  HL-Gap            0.1379904 Eh            3.7549 eV

     #   Z          covCN         q      C6AA      α(0)
     1   6 C        3.758    -0.145    23.360     6.891
     2   6 C        2.745     0.280    22.252     7.724
     3   8 O        0.858    -0.413    21.945     6.281
     4   7 N        2.697    -0.163    24.534     7.356
     5   6 C        2.904     0.065    26.552     8.449
     6   6 C        2.921    -0.047    29.168     8.857
     7   6 C        2.920    -0.051    29.279     8.873
     8   6 C        2.845     0.140    24.944     8.185
     9   6 C        2.918    -0.070    29.735     8.942
    10   6 C        2.926    -0.056    29.393     8.891
    11   8 O        1.659    -0.392    20.691     6.141
    12   1 H        0.925     0.073     2.054     2.241
    13   1 H        0.925     0.053     2.279     2.361
    14   1 H        0.925     0.058     2.224     2.332
    15   1 H        0.860     0.173     1.252     1.753
    16   1 H        0.926     0.083     1.952     2.185
    17   1 H        0.926     0.058     2.222     2.331
    18   1 H        0.925     0.029     2.605     2.524
    19   1 H        0.925     0.028     2.612     2.527
    20   1 H        0.805     0.298     0.726     1.339

Wiberg/Mayer (AO) data.
largest (>0.10) Wiberg bond orders for each atom

     #   Z sym  total        # sym  WBO       # sym  WBO       # sym  WBO
 ---------------------------------------------------------------------------
     1   6 C    3.993 --    12 H    0.983     2 C    0.977    13 H    0.973
                            14 H    0.969
     2   6 C    3.947 --     3 O    1.715     4 N    1.197     1 C    0.977
     3   8 O    2.032 --     2 C    1.715     4 N    0.168
     4   7 N    3.487 --     2 C    1.197     5 C    1.067    15 H    0.937
                             3 O    0.168
     5   6 C    3.961 --    10 C    1.372     6 C    1.362     4 N    1.067
     6   6 C    3.986 --     7 C    1.468     5 C    1.362    16 H    0.959
                             9 C    0.102
     7   6 C    3.988 --     6 C    1.468     8 C    1.359    17 H    0.967
                            10 C    0.105
     8   6 C    3.938 --     9 C    1.371     7 C    1.359    11 O    1.068
     9   6 C    3.987 --    10 C    1.451     8 C    1.371    18 H    0.967
                             6 C    0.102
    10   6 C    3.989 --     9 C    1.451     5 C    1.372    19 H    0.967
                             7 C    0.105
    11   8 O    2.111 --     8 C    1.068    20 H    0.890
    12   1 H    0.994 --     1 C    0.983
    13   1 H    0.997 --     1 C    0.973
    14   1 H    0.996 --     1 C    0.969
    15   1 H    0.969 --     4 N    0.937
    16   1 H    0.993 --     6 C    0.959
    17   1 H    0.996 --     7 C    0.967
    18   1 H    0.999 --     9 C    0.967
    19   1 H    0.999 --    10 C    0.967
    20   1 H    0.911 --    11 O    0.890
 ---------------------------------------------------------------------------

molecular dipole:
                 x           y           z       tot (Debye)
 q only:       -0.143      -1.458      -0.554
   full:       -0.126      -2.018      -0.781       5.508

           -------------------------------------------------
          | TOTAL ENERGY              -32.782977063239 Eh   |
          | GRADIENT NORM               0.000636711769 Eh/α |
          | HOMO-LUMO GAP               3.754908668304 eV   |
           -------------------------------------------------

 * finished run on 2024/12/10 at 16:24:29.237
