   * xtb version 6.6.0 (conda-forge) compiled by 'runner@Mac-1676020848589.local' on 2023-02-10
          program call               : xtb aspirin.xyz --opt --gfn2

   ID    Z sym.   atoms
    1    6 C      1, 2, 5-11
    2    8 O      3, 4, 12, 13
    3    1 H      14-21

          :  Hamiltonian                  GFN2-xTB          :
 * total energy  :   -39.5978404 Eh     change       -0.2564846E-08 Eh
 * total energy  :   -39.6201715 Eh     change       -0.2233114E-01 Eh
 * total energy  :   -39.6262692 Eh     change       -0.6097699E-02 Eh
 * total energy  :   -39.6272594 Eh     change       -0.9901512E-03 Eh
 * total energy  :   -39.6277137 Eh     change       -0.4543750E-03 Eh
 * total energy  :   -39.6279991 Eh     change       -0.2853900E-03 Eh
 * total energy  :   -39.6282672 Eh     change       -0.2680879E-03 Eh
 * total energy  :   -39.6284356 Eh     change       -0.1683906E-03 Eh
 * total energy  :   -39.6285168 Eh     change       -0.8123240E-04 Eh
 * total energy  :   -39.6285515 Eh     change       -0.3469716E-04 Eh
 * total energy  :   -39.6290035 Eh     change       -0.1333967E-04 Eh
 * total energy  :   -39.6290196 Eh     change       -0.1609705E-04 Eh
 * total energy  :   -39.6290415 Eh     change       -0.2193135E-04 Eh
 * total energy  :   -39.6290561 Eh     change       -0.1455965E-04 Eh
 * total energy  :   -39.6290664 Eh     change       -0.1029907E-04 Eh
 * total energy  :   -39.6290781 Eh     change       -0.1168885E-04 Eh
 * total energy  :   -39.6290818 Eh     change       -0.3721322E-05 Eh
 * total energy  :   -39.6290881 Eh     change       -0.6318397E-05 Eh
 * total energy  :   -39.6290916 Eh     change       -0.3455108E-05 Eh
   *** GEOMETRY OPTIMIZATION CONVERGED AFTER 37 ITERATIONS ***

 final structure:
================
21
 xtb: 6.6.0 (conda-forge)
C            3.50291697958400       -0.27597748215816       -0.22786046227191
C            2.25418513434631        0.19737016590803        0.45705660394038
O            2.16296281463953        0.55957132544116        1.59644604725796
O            1.21902594847373        0.13593122636459       -0.40616636159362
C           -0.05997618157150        0.44537055903002       -0.00378336651897
C           -0.35202567544207        1.64554880535807        0.62809760127119
C           -1.66115664784546        1.95191432343469        0.95458430505863
C           -2.68577879930425        1.07317115371747        0.64134062163174
C           -2.39973060622366       -0.12280040096283        0.01248370259384
C           -1.08649894568245       -0.45906207677411       -0.30951908410720
C           -0.77497925109675       -1.76998221253253       -0.92563315242735
O            0.31338308856694       -2.28218130159563       -0.98625208676929
O           -1.86840786718410       -2.38049409874161       -1.41391687545032
H            3.35460165176068       -1.31004763831598       -0.53143184540638
H            4.34809164384019       -0.19841628094890        0.44828074171244
H            3.67739148249853        0.31528008251516       -1.12375439217488
H            0.44826216916374        2.32849764858614        0.86515836381014
H           -1.87979458860489        2.88459306290127        1.45207563532010
H           -3.70628922767223        1.31933383321261        0.89141553056663
H           -3.18752016137964       -0.81889184425217       -0.22817582953533
H           -1.61856296086652       -3.23862885018745       -1.79064569690745

          :  Hamiltonian                  GFN2-xTB          :
         :: total energy             -39.629091578956 Eh    ::
         :: gradient norm              0.000689393812 Eh/a0 ::
         :: HOMO-LUMO gap              3.596735295655 eV    ::
         :: SCC energy               -40.119187843634 Eh    ::
         :: -> dispersion             -0.018618344886 Eh    ::
         :: repulsion energy           0.490034552557 Eh    ::

    * Orbital Energies and Occupations

         #    Occupation            Energy/Eh            Energy/eV
      -------------------------------------------------------------
         1        2.0000           -0.7495660             -20.3967
       ...           ...                  ...                  ...
        22        2.0000           -0.5088658             -13.8469
        23        2.0000           -0.4959912             -13.4966
        24        2.0000           -0.4905865             -13.3495
        25        2.0000           -0.4839981             -13.1703
        26        2.0000           -0.4825685             -13.1314
        27        2.0000           -0.4800470             -13.0627
        28        2.0000           -0.4746965             -12.9171
        29        2.0000           -0.4620984             -12.5743
        30        2.0000           -0.4506801             -12.2636
        31        2.0000           -0.4312230             -11.7342
        32        2.0000           -0.4248897             -11.5618
        33        2.0000           -0.4178768             -11.3710
        34        2.0000           -0.4159388             -11.3183 (HOMO)
        35                         -0.2837612              -7.7215 (LUMO)
        36                         -0.2502801              -6.8105
        37                         -0.2243849              -6.1058
        38                         -0.2007155              -5.4617
        39                         -0.1051468              -2.8612
        40                          0.0209818               0.5709
        41                          0.0491563               1.3376
        42                          0.1182603               3.2180
        43                          0.1254618               3.4140
        44                          0.1507849               4.1031
        45                          0.1568936               4.2693
       ...                                ...                  ...
        60                          0.6834457              18.5975
      -------------------------------------------------------------
                  HL-Gap            0.1321776 Eh            3.5967 eV

     #   Z          covCN         q      C6AA      α(0)
     1   6 C        3.754    -0.149    23.443     6.904
     2   6 C        2.710     0.369    20.748     7.456
     3   8 O        0.856    -0.396    21.602     6.231
     4   8 O        1.709    -0.238    17.947     5.720
     5   6 C        2.872     0.158    24.574     8.126
     6   6 C        2.916    -0.040    29.001     8.831
     7   6 C        2.921    -0.019    28.489     8.753
     8   6 C        2.917    -0.031    28.775     8.796
     9   6 C        2.923    -0.021    28.537     8.760
    10   6 C        2.969    -0.031    28.781     8.800
    11   6 C        2.695     0.362    20.852     7.474
    12   8 O        0.856    -0.408    21.851     6.267
    13   8 O        1.660    -0.381    20.476     6.109
    14   1 H        0.925     0.094     1.837     2.119
    15   1 H        0.925     0.077     2.009     2.217
    16   1 H        0.925     0.080     1.982     2.202
    17   1 H        0.926     0.068     2.107     2.270
    18   1 H        0.926     0.055     2.253     2.347
    19   1 H        0.926     0.052     2.292     2.367
    20   1 H        0.926     0.070     2.090     2.261
    21   1 H        0.804     0.330     0.637     1.254

Wiberg/Mayer (AO) data.
largest (>0.10) Wiberg bond orders for each atom

     #   Z sym  total        # sym  WBO       # sym  WBO       # sym  WBO
 ---------------------------------------------------------------------------
     1   6 C    3.988 --     2 C    0.993    15 H    0.982    16 H    0.963
                            14 H    0.956
     2   6 C    3.909 --     3 O    1.775     4 O    1.080     1 C    0.993
     3   8 O    2.057 --     2 C    1.775     4 O    0.160
     4   8 O    2.362 --     2 C    1.080     5 C    1.002     3 O    0.160
     5   6 C    3.931 --     6 C    1.398    10 C    1.332     4 O    1.002
     6   6 C    3.988 --     7 C    1.440     5 C    1.398    17 H    0.965
                             9 C    0.105
     7   6 C    3.990 --     6 C    1.440     8 C    1.428    18 H    0.969
     8   6 C    3.991 --     9 C    1.453     7 C    1.428    19 H    0.969
     9   6 C    3.987 --     8 C    1.453    10 C    1.389    20 H    0.964
                             6 C    0.105
    10   6 C    3.986 --     9 C    1.389     5 C    1.332    11 C    1.012
    11   6 C    3.920 --    12 O    1.742    13 O    1.116    10 C    1.012
    12   8 O    2.039 --    11 C    1.742    13 O    0.170
    13   8 O    2.191 --    11 C    1.116    21 H    0.867    12 O    0.170
    14   1 H    0.991 --     1 C    0.956
    15   1 H    0.993 --     1 C    0.982
    16   1 H    0.994 --     1 C    0.963
    17   1 H    0.995 --     6 C    0.965
    18   1 H    0.996 --     7 C    0.969
    19   1 H    0.997 --     8 C    0.969
    20   1 H    0.994 --     9 C    0.964
    21   1 H    0.890 --    13 O    0.867
 ---------------------------------------------------------------------------

molecular dipole:
                 x           y           z       tot (Debye)
 q only:       -0.774       0.293      -0.582
   full:       -0.785       0.151      -0.750       2.786

           -------------------------------------------------
          | TOTAL ENERGY              -39.629091578956 Eh   |
          | GRADIENT NORM               0.000689393812 Eh/α |
          | HOMO-LUMO GAP               3.596735295655 eV   |
           -------------------------------------------------

 * finished run on 2024/12/03 at 16:15:43.909
